data_exp_2584
_audit_creation_date               2024-03-21
_audit_creation_method
;
Olex2 1.5
(compiled 2024.02.16 svn.r378c4104 for OlexSys, GUI svn.r6928)
;
_shelx_SHELXL_version_number       '2018/3'
_audit_contact_author_address      ?
_audit_contact_author_email        ?
_audit_contact_author_name         ''
_audit_contact_author_phone        ?
_publ_contact_author_id_orcid      ?
_publ_section_references
;
Dolomanov, O.V., Bourhis, L.J., Gildea, R.J, Howard, J.A.K. & Puschmann, H.
 (2009), J. Appl. Cryst. 42, 339-341.

Sheldrick, G.M. (2015). Acta Cryst. A71, 3-8.

Sheldrick, G.M. (2015). Acta Cryst. C71, 3-8.
;
_chemical_name_common              ?
_chemical_name_systematic          ?
_chemical_formula_moiety           'Al12.8 B8 Mn3.2 O34'
_chemical_formula_sum              'Al B Li Mn O'
_chemical_formula_weight           115.67
_chemical_absolute_configuration   ?
_chemical_melting_point            ?
_chemical_oxdiff_formula           'Li1  B1  O1  Al1  Mn1  '
loop_
  _atom_type_symbol
  _atom_type_description
  _atom_type_scat_dispersion_real
  _atom_type_scat_dispersion_imag
  _atom_type_scat_source
 'Li' 'Li' 0.0000 0.0000 'International Tables Vol C Tables 4.2.6.8 and 6.1.1.4'
 'B' 'B' 0.0000 0.0000 'International Tables Vol C Tables 4.2.6.8 and 6.1.1.4'
 'O' 'O' 0.0000 0.0000 'International Tables Vol C Tables 4.2.6.8 and 6.1.1.4'
 'Al' 'Al' 0.0000 0.0000 'International Tables Vol C Tables 4.2.6.8 and 6.1.1.4'
 'Mn' 'Mn' 0.0000 0.0000 'International Tables Vol C Tables 4.2.6.8 and 6.1.1.4'

_diffrn_oxdiff_scatteringfactors_ed
;
Peng,L.M. (1999) Micron 30, 625-648
;
_shelx_space_group_comment
;
The symmetry employed for this shelxl refinement is uniquely defined
by the following loop, which should always be used as a source of
symmetry information in preference to the above space-group names.
They are only intended as comments.
;
_space_group_crystal_system        'tetragonal'
_space_group_IT_number             82
_space_group_name_H-M_alt          'I -4'
_space_group_name_Hall             'I -4'
loop_
  _space_group_symop_operation_xyz
 'x, y, z'
 '-x, -y, z'
 'y, -x, -z'
 '-y, x, -z'
 'x+1/2, y+1/2, z+1/2'
 '-x+1/2, -y+1/2, z+1/2'
 'y+1/2, -x+1/2, -z+1/2'
 '-y+1/2, x+1/2, -z+1/2'

_cell_length_a                     10.44(14)
_cell_length_b                     10.44(14)
_cell_length_c                     5.57(17)
_cell_angle_alpha                  90
_cell_angle_beta                   90
_cell_angle_gamma                  90
_cell_volume                       607(25)
_cell_formula_units_Z              1
_cell_measurement_reflns_used      464
_cell_measurement_temperature      293(2)
_cell_measurement_theta_max        1.0240
_cell_measurement_theta_min        0.1370
_shelx_estimated_absorpt_T_max     ?
_shelx_estimated_absorpt_T_min     ?
_exptl_absorpt_coefficient_mu      0.000
_exptl_absorpt_correction_T_max    1.00000
_exptl_absorpt_correction_T_min    0.30833
_exptl_absorpt_correction_type     multi-scan
_exptl_absorpt_process_details
;
CrysAlisPro 1.171.43.115a (Rigaku Oxford Diffraction, 2024)
Empirical absorption correction using spherical harmonics,
implemented in SCALE3 ABSPACK scaling algorithm.
;
_exptl_absorpt_special_details     ?
_exptl_crystal_colour              ?
_exptl_crystal_density_diffrn      0.316
_exptl_crystal_density_meas        ?
_exptl_crystal_density_method      ?
_exptl_crystal_description         ?
_exptl_crystal_F_000               21
_exptl_crystal_size_max            ?
_exptl_crystal_size_mid            ?
_exptl_crystal_size_min            ?
_exptl_transmission_factor_max     ?
_exptl_transmission_factor_min     ?
_diffrn_reflns_av_R_equivalents    0.4321
_diffrn_reflns_av_unetI/netI       0.6966
_diffrn_reflns_Laue_measured_fraction_full  0.997
_diffrn_reflns_Laue_measured_fraction_max  0.998
_diffrn_reflns_limit_h_max         14
_diffrn_reflns_limit_h_min         -14
_diffrn_reflns_limit_k_max         14
_diffrn_reflns_limit_k_min         -14
_diffrn_reflns_limit_l_max         7
_diffrn_reflns_limit_l_min         -7
_diffrn_reflns_number              1941
_diffrn_reflns_point_group_measured_fraction_full  0.998
_diffrn_reflns_point_group_measured_fraction_max  0.999
_diffrn_reflns_theta_full          0.863
_diffrn_reflns_theta_max           1.026
_diffrn_reflns_theta_min           0.138
_diffrn_ambient_temperature        293(2)
_diffrn_detector                   'Hybrid Pixel Array Detector'
_diffrn_detector_area_resol_mean   10.0000
_diffrn_detector_type              HyPix-ED
_diffrn_measured_fraction_theta_full  0.997
_diffrn_measured_fraction_theta_max  0.998
_diffrn_measurement_details
;
List of Runs (angles in degrees, time in seconds):

  # Type    Start    End  Width  t~exp~   \w     \q     \k     \f   Frames
--------------------------------------------------------------------------
  1  \w    -55.00  45.00   0.50    1.00    --    0.00   0.00   0.00  200
;
_diffrn_measurement_device         'electron diffractometer'
_diffrn_measurement_device_type   
 'XtaLAB Synergy-ED, HyPix-ED, electron source at 200keV'
_diffrn_measurement_method         'continuous rotation electron diffraction'
_diffrn_orient_matrix_type        
 'CrysAlisPro convention (1999,Acta A55,543-557)'
_diffrn_orient_matrix_UB_11        -0.0012214000
_diffrn_orient_matrix_UB_12        0.0018068000
_diffrn_orient_matrix_UB_13        -0.0019278000
_diffrn_orient_matrix_UB_21        0.0009191000
_diffrn_orient_matrix_UB_22        0.0015318000
_diffrn_orient_matrix_UB_23        0.0030057000
_diffrn_orient_matrix_UB_31        0.0018448000
_diffrn_orient_matrix_UB_32        0.0004371000
_diffrn_orient_matrix_UB_33        -0.0027633000
_diffrn_radiation_monochromator    none
_diffrn_radiation_probe            electron
_diffrn_radiation_type             electron
_diffrn_radiation_wavelength       0.0251
_diffrn_source                     'electron diffractometer'
_diffrn_source_type                'JEOL JSM-2300ED, LaB6'
_reflns_Friedel_coverage           0.823
_reflns_Friedel_fraction_full      1.000
_reflns_Friedel_fraction_max       1.000
_reflns_number_gt                  91
_reflns_number_total               917
_reflns_special_details
;
 Reflections were merged by SHELXL according to the crystal
 class for the calculation of statistics and refinement.
 
 _reflns_Friedel_fraction is defined as the number of unique
 Friedel pairs measured divided by the number that would be
 possible theoretically, ignoring centric projections and
 systematic absences.
;
_reflns_threshold_expression       'I > 2\s(I)'
_computing_cell_refinement         'CrysAlisPro 1.171.43.115a (Rigaku OD, 2024)'
_computing_data_collection        
 'CrysAlisPro system (CCD 43.65a 64-bit (release 18-03-2023))'
_computing_data_reduction          'CrysAlisPro 1.171.43.115a (Rigaku OD, 2024)'
_computing_molecular_graphics      'Olex2 1.5 (Dolomanov et al., 2009)'
_computing_publication_material    'Olex2 1.5 (Dolomanov et al., 2009)'
_computing_structure_refinement    'SHELXL 2018/3 (Sheldrick, 2015)'
_computing_structure_solution      'SHELXT 2018/2 (Sheldrick, 2018)'
_refine_diff_density_max           0.231
_refine_diff_density_min           -0.222
_refine_diff_density_rms           0.066
_refine_ls_abs_structure_details
;
 All f" are zero, so absolute structure could not be determined
;
_refine_ls_abs_structure_Flack     ?
_refine_ls_extinction_coef         3661(163)
_refine_ls_extinction_expression  
 'Fc^*^=kFc[1+0.001xFc^2^\l^3^/sin(2\q)]^-1/4^'
_refine_ls_extinction_method       'SHELXL-2018/3 (Sheldrick 2018)'
_refine_ls_goodness_of_fit_ref     0.842
_refine_ls_hydrogen_treatment      undef
_refine_ls_matrix_type             full
_refine_ls_number_parameters       31
_refine_ls_number_reflns           917
_refine_ls_number_restraints       0
_refine_ls_R_factor_all            0.3536
_refine_ls_R_factor_gt             0.2499
_refine_ls_restrained_S_all        0.842
_refine_ls_shift/su_max            0.014
_refine_ls_shift/su_mean           0.001
_refine_ls_structure_factor_coef   Fsqd
_refine_ls_weighting_details      
 'w=1/[\s^2^(Fo^2^)+(0.1000P)^2^] where P=(Fo^2^+2Fc^2^)/3'
_refine_ls_weighting_scheme        calc
_refine_ls_wR_factor_gt            0.5185
_refine_ls_wR_factor_ref           0.6700
_refine_special_details            ?
_olex2_refinement_description
;
1. Shared sites
{Al, Mn2}
2. Uiso/Uaniso restraints and constraints
Uiso(Al) = Uiso(Mn2)
3. Others
 Fixed Sof: Al(0.6) Mn2(0.4)
;
_atom_sites_solution_hydrogens     .
_atom_sites_solution_primary       dual
_atom_sites_solution_secondary     ?
loop_
  _atom_site_label
  _atom_site_type_symbol
  _atom_site_fract_x
  _atom_site_fract_y
  _atom_site_fract_z
  _atom_site_U_iso_or_equiv
  _atom_site_adp_type
  _atom_site_occupancy
  _atom_site_site_symmetry_order
  _atom_site_calc_flag
  _atom_site_refinement_flags_posn
  _atom_site_refinement_flags_adp
  _atom_site_refinement_flags_occupancy
  _atom_site_disorder_assembly
  _atom_site_disorder_group
 Al Al 0.2459(17) 0.2505(15) 0.746(4) 0.047(5) Uiso 0.6 1 d . . P A 1
 Al1 Al 0.5268(16) 0.3226(17) 0.495(5) 0.039(4) Uiso 1 1 d . . . B 3
 O003 O -0.0677(19) 0.2531(18) 0.289(4) 0.022(4) Uiso 1 1 d . . . . .
 O004 O 0.3558(17) 0.2919(17) 0.490(4) 0.020(4) Uiso 1 1 d . . . . .
 O005 O 0.1285(18) 0.2604(18) 0.495(5) 0.024(4) Uiso 1 1 d . . . . .
 O00 O 0.500000 0.500000 0.500000 0.028(8) Uiso 1 4 d S . P . .
 B007 B -0.001(3) 0.258(2) 0.520(7) 0.021(7) Uiso 1 1 d . . . . .
 O008 O -0.075(2) 0.283(2) 0.708(4) 0.032(5) Uiso 1 1 d . . . . .
 Mn2 Mn 0.2459(17) 0.2505(15) 0.746(4) 0.047(5) Uiso 0.4 1 d . . P A 2

_geom_special_details
;
 All esds (except the esd in the dihedral angle between two l.s. planes)
 are estimated using the full covariance matrix.  The cell esds are taken
 into account individually in the estimation of esds in distances, angles
 and torsion angles; correlations between esds in cell parameters are only
 used when they are defined by crystal symmetry.  An approximate (isotropic)
 treatment of cell esds is used for estimating esds involving l.s. planes.
;
loop_
  _geom_bond_atom_site_label_1
  _geom_bond_atom_site_label_2
  _geom_bond_distance
  _geom_bond_site_symmetry_2
  _geom_bond_publ_flag
 Al Al 2.78(9) 6 ?
 Al Al 2.78(9) 6_554 ?
 Al O003 1.92(4) 3_556 ?
 Al O004 1.88(5) . ?
 Al O004 1.78(5) 6 ?
 Al O005 1.91(5) 6 ?
 Al O005 1.86(5) . ?
 Al O008 1.86(4) 8_556 ?
 Al1 Al1 2.65(4) 4_656 ?
 Al1 Al1 2.65(4) 3_566 ?
 Al1 O003 1.87(6) 6 ?
 Al1 O004 1.81(3) . ?
 Al1 O004 1.93(4) 4_656 ?
 Al1 O00 1.87(3) . ?
 Al1 O008 2.01(5) 6_554 ?
 O003 B007 1.46(6) . ?
 O004 Mn2 1.88(5) . ?
 O005 B007 1.36(4) . ?
 O005 Mn2 1.86(5) . ?
 B007 O008 1.33(5) . ?

loop_
  _geom_angle_atom_site_label_1
  _geom_angle_atom_site_label_2
  _geom_angle_atom_site_label_3
  _geom_angle
  _geom_angle_site_symmetry_1
  _geom_angle_site_symmetry_3
  _geom_angle_publ_flag
 Al Al Al 176.5(15) 6 6_554 ?
 O003 Al Al 83.9(11) 3_556 6_554 ?
 O003 Al Al 95.6(11) 3_556 6 ?
 O004 Al Al 39.1(12) . 6_554 ?
 O004 Al Al 41.8(13) 6 6 ?
 O004 Al Al 137.7(17) . 6 ?
 O004 Al Al 141.2(17) 6 6_554 ?
 O004 Al O003 81.6(12) 6 3_556 ?
 O004 Al O003 97.3(13) . 3_556 ?
 O004 Al O004 178.7(11) 6 . ?
 O004 Al O005 81(2) 6 6 ?
 O004 Al O005 98(2) . 6 ?
 O004 Al O005 101(2) 6 . ?
 O004 Al O008 92.3(13) 6 8_556 ?
 O005 Al Al 140.5(17) . 6 ?
 O005 Al Al 134.7(17) 6 6_554 ?
 O005 Al Al 41.8(13) 6 6 ?
 O005 Al Al 43.1(13) . 6_554 ?
 O005 Al O003 89.3(10) 6 3_556 ?
 O005 Al O003 90.2(11) . 3_556 ?
 O005 Al O004 80(2) . . ?
 O005 Al O005 177.7(16) . 6 ?
 O005 Al O008 86.8(13) . 8_556 ?
 O008 Al Al 82.5(11) 8_556 6 ?
 O008 Al Al 98.5(12) 8_556 6_554 ?
 O008 Al O003 172.6(13) 8_556 3_556 ?
 O008 Al O004 88.8(12) 8_556 . ?
 O008 Al O005 93.9(13) 8_556 6 ?
 O003 Al1 Al1 114.7(18) 6 3_566 ?
 O003 Al1 Al1 100.8(16) 6 4_656 ?
 O003 Al1 O004 79.3(13) 6 4_656 ?
 O003 Al1 O00 116.1(16) 6 . ?
 O003 Al1 O008 114(2) 6 6_554 ?
 O004 Al1 Al1 133.1(9) 4_656 3_566 ?
 O004 Al1 Al1 43.2(9) 4_656 4_656 ?
 O004 Al1 Al1 136.6(9) . 4_656 ?
 O004 Al1 Al1 46.6(9) . 3_566 ?
 O004 Al1 O003 99.5(15) . 6 ?
 O004 Al1 O004 178.5(15) . 4_656 ?
 O004 Al1 O00 91.6(9) . . ?
 O004 Al1 O008 97.9(13) . 6_554 ?
 O004 Al1 O008 83.4(12) 4_656 6_554 ?
 O00 Al1 Al1 44.995(12) . 4_656 ?
 O00 Al1 Al1 44.995(10) . 3_566 ?
 O00 Al1 O004 88.2(9) . 4_656 ?
 O00 Al1 O008 126.2(17) . 6_554 ?
 O008 Al1 Al1 123.0(17) 6_554 3_566 ?
 O008 Al1 Al1 107.9(16) 6_554 4_656 ?
 B007 O003 Al 125(2) . 4_556 ?
 B007 O003 Al1 132(2) . 6_554 ?
 Al O004 Al 99(2) 6_554 . ?
 Al O004 Al1 99.8(13) 6_554 3_566 ?
 Al O004 Al1 94.8(12) . 3_566 ?
 Al1 O004 Al1 90.1(12) . 3_566 ?
 Mn2 O004 Al1 94.8(12) . 3_566 ?
 Al O005 Al 95(2) . 6_554 ?
 B007 O005 Al 139(2) . 6_554 ?
 B007 O005 Al 125(2) . . ?
 B007 O005 Mn2 125(2) . . ?
 Al1 O00 Al1 178.4(15) 4_656 3_566 ?
 Al1 O00 Al1 90.01(3) . 3_566 ?
 O005 B007 O003 113(3) . . ?
 O008 B007 O003 114(3) . . ?
 O008 B007 O005 131(3) . . ?
 Al O008 Al1 92.7(13) 7_456 6 ?
 B007 O008 Al 131(2) . 7_456 ?
 B007 O008 Al1 112(3) . 6 ?
 O004 Mn2 O003 97.3(13) . 3_556 ?
 O004 Mn2 O003 81.6(12) 6 3_556 ?
 O004 Mn2 O004 178.7(11) 6 . ?
 O004 Mn2 O005 101(2) 6 . ?
 O004 Mn2 O005 98(2) . 6 ?
 O004 Mn2 O005 81(2) 6 6 ?
 O004 Mn2 O008 92.3(13) 6 8_556 ?
 O005 Mn2 O003 90.2(11) . 3_556 ?
 O005 Mn2 O003 89.3(10) 6 3_556 ?
 O005 Mn2 O004 80(2) . . ?
 O005 Mn2 O005 177.7(16) . 6 ?
 O005 Mn2 O008 86.8(13) . 8_556 ?
 O008 Mn2 O003 172.6(13) 8_556 3_556 ?
 O008 Mn2 O004 88.8(12) 8_556 . ?
 O008 Mn2 O005 93.9(13) 8_556 6 ?

loop_
  _geom_torsion_atom_site_label_1
  _geom_torsion_atom_site_label_2
  _geom_torsion_atom_site_label_3
  _geom_torsion_atom_site_label_4
  _geom_torsion
  _geom_torsion_site_symmetry_1
  _geom_torsion_site_symmetry_2
  _geom_torsion_site_symmetry_3
  _geom_torsion_site_symmetry_4
  _geom_torsion_publ_flag
 Al Al O004 Al 177.5(19) 6 . . 6_554 ?
 Al Al O005 Al -180(2) 6 . . 6_554 ?
 Al Al O005 B007 173(2) 6_554 . . . ?
 Al Al O005 B007 -7(3) 6 . . . ?
 Al O003 B007 O005 179.1(15) 4_556 . . . ?
 Al O003 B007 O008 -13(3) 4_556 . . . ?
 Al O005 B007 O003 -5(3) 6_554 . . . ?
 Al O005 B007 O003 -173.8(16) . . . . ?
 Al O005 B007 O008 21(4) . . . . ?
 Al O005 B007 O008 -170(2) 6_554 . . . ?
 Al1 Al1 O004 Al1 -2(2) 4_656 . . 3_566 ?
 Al1 Al1 O00 Al1 178.4(15) 3_566 . . 4_656 ?
 Al1 Al1 O00 Al1 -178.4(15) 4_656 . . 3_566 ?
 Al1 O003 B007 O005 33(3) 6_554 . . . ?
 Al1 O003 B007 O008 -159(2) 6_554 . . . ?
 O003 Al O004 Al 70.8(12) 3_556 . . 6_554 ?
 O003 Al O005 Al -80.7(11) 3_556 . . 6_554 ?
 O003 Al O005 B007 91.9(18) 3_556 . . . ?
 O003 Al1 O004 Al1 115.2(18) 6 . . 3_566 ?
 O003 Al1 O00 Al1 -99.6(15) 6 . . 3_566 ?
 O003 Al1 O00 Al1 78.7(13) 6 . . 4_656 ?
 O003 B007 O008 Al 26(3) . . . 7_456 ?
 O003 B007 O008 Al1 140.1(18) . . . 6 ?
 O004 Al O005 Al -162.2(14) 6 . . 6_554 ?
 O004 Al O005 Al 16.6(9) . . . 6_554 ?
 O004 Al O005 B007 10(2) 6 . . . ?
 O004 Al O005 B007 -170.8(18) . . . . ?
 O004 Al1 O00 Al1 1.6(7) 4_656 . . 4_656 ?
 O004 Al1 O00 Al1 1.7(7) . . . 3_566 ?
 O004 Al1 O00 Al1 -179.9(17) . . . 4_656 ?
 O004 Al1 O00 Al1 -176.8(17) 4_656 . . 3_566 ?
 O005 Al O004 Al 161.2(13) 6 . . 6_554 ?
 O005 Al O004 Al -18.0(9) . . . 6_554 ?
 O005 B007 O008 Al -169.0(19) . . . 7_456 ?
 O005 B007 O008 Al1 -55(3) . . . 6 ?
 O00 Al1 O004 Al1 -1.7(7) . . . 3_566 ?
 B007 O005 Mn2 O003 91.9(18) . . . 3_556 ?
 B007 O005 Mn2 O004 -170.8(18) . . . . ?
 B007 O005 Mn2 O004 10(2) . . . 6 ?
 B007 O005 Mn2 O008 -81.4(19) . . . 8_556 ?
 O008 Al O004 Al -105.0(13) 8_556 . . 6_554 ?
 O008 Al O005 Al 106.0(12) 8_556 . . 6_554 ?
 O008 Al O005 B007 -81.4(19) 8_556 . . . ?
 O008 Al1 O004 Al1 -128.6(18) 6_554 . . 3_566 ?
 O008 Al1 O00 Al1 102.8(17) 6_554 . . 3_566 ?
 O008 Al1 O00 Al1 -78.8(15) 6_554 . . 4_656 ?
 Mn2 O005 B007 O003 -173.8(16) . . . . ?
 Mn2 O005 B007 O008 21(4) . . . . ?

_shelx_res_file
;
TITL exp_2584_b.res in I-4
    exp_2584.res
    created by SHELXL-2018/3 at 15:26:11 on 21-Mar-2024
REM Old TITL exp_2584 in I4(1)
REM SHELXT solution in I-4: R1 0.407, Rweak 0.107, Alpha 0.216
REM <I/s> 0.000 for 0 systematic absences, Orientation as input
REM Formula found by SHELXT: B4 O21 Al4
CELL 0.0251 10.4417 10.4417 5.5666 90 90 90
ZERR 1 0.1395 0.1395 0.1728 0 0 0
LATT -2
SYMM -X,-Y,+Z
SYMM +Y,-X,-Z
SYMM -Y,+X,-Z
SFAC  Li 0.120 0.591 0.395 6.111 1.379 36.767 1.389 117.031 0 0 0 0 1.33 6.941
SFAC  B 0.130 0.418 0.52 3.921 1.377 16.663 0.767 51.751 0 0 0 0 0.85 10.811
SFAC  O 0.143 0.305 0.51 2.268 0.937 8.262 0.392 25.665 0 0 0 0 0.63 15.999
SFAC  Al 0.358 0.453 0.975 3.774 2.639 23.386 1.91 80.502 0 0 0 0 1.26 26.982
SFAC  Mn 0.555 0.395 2.007 3.48 2.568 19.586 2.369 74.92 0 0 0 0 1.19 54.938
UNIT 1 1 1 1 1

EADP Al Mn2
EXYZ Al Mn2

L.S. 10
PLAN  7
CONF
LIST 6
MORE -1
fmap 2
ACTA
REM <olex2.extras>
REM <HklSrc "%.\\exp_2584.hkl">
REM </olex2.extras>

WGHT    0.100000
EXTI 3660.801758
FVAR       3.72221
PART 1
AL    4    0.245901    0.250479    0.746099    10.60000    0.04673
PART 3
AL1   4    0.526819    0.322649    0.495255    11.00000    0.03946
PART 0
O003  3   -0.067719    0.253091    0.289197    11.00000    0.02182
O004  3    0.355829    0.291878    0.489911    11.00000    0.02007
O005  3    0.128548    0.260354    0.494537    11.00000    0.02406
O00   3    0.500000    0.500000    0.500000    10.25000    0.02840
B007  2   -0.000510    0.257651    0.519825    11.00000    0.02115
O008  3   -0.075342    0.282840    0.707553    11.00000    0.03238
PART 2
MN2   5    0.245901    0.250479    0.746099    10.40000    0.04673
HKLF 4




REM  exp_2584_b.res in I-4
REM wR2 = 0.6700, GooF = S = 0.842, Restrained GooF = 0.842 for all data
REM R1 = 0.2499 for 91 Fo > 4sig(Fo) and 0.3536 for all 917 data
REM 31 parameters refined using 0 restraints

END

WGHT      0.0001      0.0000

REM Highest difference peak  0.231,  deepest hole -0.222,  1-sigma level  0.066
Q1    1   0.5132  0.3925  0.4966  11.00000  0.05    0.23
Q2    1   0.3368  0.3734  0.4934  11.00000  0.05    0.19
Q3    1  -0.0528  0.1898  0.2776  11.00000  0.05    0.18
Q4    1  -0.0581  0.1989  0.7236  11.00000  0.05    0.17
Q5    1   0.4315  0.3085  0.4965  11.00000  0.05    0.16
Q6    1  -0.0992  0.3760  0.7105  11.00000  0.05    0.16
Q7    1   0.4359  0.3947  0.3329  11.00000  0.05    0.14
;
_shelx_res_checksum                70539
_shelx_hkl_file
;
   0   0  -6  620.58  452.40
   0   0  -4 9999.00 7133.67
   0   0  -2 5278.34 3766.04
   0   0   2 4453.04 3177.77
   0   0   4 7538.48 5379.31
   0   0   6  160.69  156.32
   0   1  -7  657.01  300.76
   0  -1  -7  400.26  291.21
  -1   0  -7  337.80  295.95
   1   0  -7  292.65  293.03
  -1   0  -5   83.10  101.14
   0   1  -5   18.14  110.25
   0  -1  -5  -64.92   73.01
   1   0  -5   95.47   75.65
   0  -1  -3 2631.34 1748.03
  -1   0  -3 3873.05 1751.56
   1   0  -3 1863.27 1747.93
  -1   0  -1 2968.20 2383.15
   0  -1  -1 3587.21 2381.70
   1   0  -1 3283.10 2381.34
   0   1   1 3370.81 2232.75
  -1   0   1 3062.98 2232.40
   1   0   1 2772.92 2234.44
  -1   0   3 1674.66 1103.26
   0   1   3 1348.33 1102.43
   1   0   3 1787.02 1106.41
  -1   0   5   19.01   90.07
   1   0   5  209.13  116.08
   0  -1   5  -82.09  131.50
   0   1   5  -57.41   86.20
   0  -1   7  126.01  106.91
   0   1   7  -40.87   79.62
  -1   0   7  -57.46   91.24
   1   0   7    4.02   98.50
  -1   1  -6  130.71  141.07
   1  -1  -6   81.88  104.80
   1   1  -6   16.42  124.97
  -1  -1  -6  238.17  112.10
  -1   1  -4  136.84  244.68
   1  -1  -4  302.95  214.97
   1   1  -4  173.22  231.59
  -1  -1  -4  394.28  222.16
  -1  -1  -2 2221.26 1540.30
   1  -1  -2 2119.32 1539.72
  -1   1   2 2058.79 1297.68
   1   1   2 1412.55 1298.43
   1   1   4  401.92  477.71
  -1   1   4 1049.90  476.19
   1  -1   4  679.79  487.80
  -1  -1   4  180.47  483.97
  -1   1   6  -17.30   72.79
   1  -1   6  -53.94  110.70
  -1  -1   6  120.17  116.63
   1   1   6    2.74   93.62
  -1  -2  -7  244.41  114.55
   1   2  -7    3.46  142.71
   2  -1  -7   94.25  108.78
  -2   1  -7  148.12  153.38
   2  -1  -5 1479.16  876.98
  -1  -2  -5  836.96  877.54
  -2   1  -5 1563.63  887.32
  -1  -2  -3 1013.20  936.01
   2  -1  -3 1519.61  935.45
   2  -1  -1 1829.97 1282.11
  -1  -2  -1 1766.33 1281.89
  -2   1   1 1325.24 1135.52
   1   2   1 1834.81 1135.41
   1   2   3  952.37  807.81
  -2   1   3 1257.77  807.16
   2  -1   5  866.29  340.05
   1   2   5  144.62  316.96
  -2   1   5  583.16  316.00
  -1  -2   7  295.61  132.16
   1   2   7  -14.11   77.27
  -2   1   7   21.86   73.26
   2  -1   7  166.69  117.30
   0  -2  -6  109.30  198.32
   0   2  -6   17.26  224.33
  -2   0  -6  114.75  219.47
  -2   0  -4 3001.47 2512.79
   2   0  -4 3738.03 2510.26
   0  -2  -4 3500.63 2509.97
   2   0  -2 3032.84 2127.57
   0  -2  -2 2881.11 2128.10
  -2   0  -2 2924.24 2131.20
   0  -2   0 3981.60 2693.10
   0   2   0 3576.79 2692.97
  -2   0   2 2706.20 1912.87
   0   2   2 2613.73 1913.44
   2   0   2 2740.08 1916.19
  -2   0   4 2207.54 1704.01
   2   0   4 2307.88 1707.85
   0   2   4 2545.58 1703.47
   0   2   6  -26.86   71.33
  -2   0   6   52.34   83.94
   2   0   6  -73.77  112.85
  -1   2  -7   12.25  119.96
   1  -2  -7   88.70   56.97
  -2  -1  -7   20.96   82.44
   2   1  -7  -23.04   88.63
  -2  -1  -5  688.74  259.27
   1  -2  -5  304.49  249.02
   2   1  -5   73.49  261.22
   1  -2  -3  551.94  473.24
  -2  -1  -3 1245.11  478.88
   2   1  -3  423.46  478.08
  -2  -1  -1 3043.34 2208.40
   1  -2  -1 3148.62 2208.46
  -1   2   1 3010.28 2117.06
   2   1   1 2916.76 2117.23
   2   1   3  750.16  775.28
  -2  -1   3 1093.02  776.65
  -1   2   3 1231.89  772.66
  -1   2   5   73.55  133.61
   2   1   5  107.08  155.45
  -1   2   7  -34.67   67.36
  -2  -1   7  -40.80   97.20
   2   1   7   14.04   94.20
   2   2  -6  112.57  558.28
   2  -2  -6  812.36  551.67
  -2  -2  -6 1108.17  555.35
   2  -2  -4  133.06  100.69
  -2  -2  -4  113.75  109.79
   2  -2  -2 5191.77 3687.14
  -2  -2  -2 5126.08 3687.62
   2   2   0 2432.08 1727.11
  -2  -2   0 2408.54 1727.13
   2   2   2 3704.81 2480.97
  -2   2   2 3339.56 2480.51
  -2   2   4   22.44   53.26
   2   2   4   22.42   72.37
   2   2   6    2.55   89.22
  -2   2   6   86.29   66.63
  -2  -3  -7   90.72  237.41
  -3   2  -7   70.44  268.02
   3  -2  -7  552.42  236.54
  -2  -3  -5  119.13   67.79
   3  -2  -5   15.77   56.15
   3  -2  -3 1036.79  660.63
  -2  -3  -3  714.30  661.89
  -2  -3  -1  546.43  392.89
   2   3   1  795.76  570.20
   2   3   3  486.72  454.76
  -3   2   3  744.04  453.92
   2   3   5   54.84   66.83
  -3   2   5    8.58   54.04
   2   3   7   -8.32   67.68
  -3   2   7   34.41   49.72
  -3   1  -6  135.96  219.89
  -1  -3  -6   96.61  186.09
   3  -1  -6  415.01  185.79
  -3   1  -4  198.92  144.66
  -1  -3  -4   -5.11   52.48
   3  -1  -4   14.62   38.93
  -1  -3  -2 4426.68 2590.23
   3  -1  -2 3337.54 2589.46
   1   3   0 1813.00 1199.08
  -1  -3   0 1553.14 1198.83
  -3   1   2 3660.21 2515.10
   1   3   2 3181.56 2515.81
   1   3   4  117.07   82.54
  -3   1   4   61.64   71.71
   1   3   6    7.45   62.55
   3  -1   6  -61.86  127.93
  -3   1   6   75.35   60.54
   0  -3  -7  127.24   83.80
   3   0  -7   43.53   89.95
  -3   0  -7  198.64  130.32
   3   0  -5  509.39  335.11
  -3   0  -5  381.86  352.14
   0  -3  -5  438.78  334.20
   3   0  -3  322.92  274.80
   0  -3  -3  545.69  278.13
  -3   0  -3  423.64  298.09
   0  -3  -1 3157.54 2147.62
  -3   0  -1 2598.00 2149.91
   3   0   1 1865.92 1635.02
   0   3   1 2461.88 1632.70
   0   3   3  163.94  157.93
  -3   0   3  230.01  151.72
   3   0   3  160.18  180.53
   3   0   5   36.81  149.35
  -3   0   5  284.49  110.38
   0   3   5   33.45  100.14
  -3   0   7  -63.10   77.30
   3   0   7   -4.51  114.00
   0   3   7  -18.63   57.60
  -3  -1  -6  184.81  286.16
   3   1  -6  380.73  282.42
   1  -3  -6  438.91  275.72
  -3  -1  -4   65.87  156.69
   1  -3  -4  251.44  138.04
   3   1  -4  103.82  148.09
   1  -3  -2 5787.97 3933.52
  -3  -1  -2 5016.92 3934.21
  -3  -1   0  510.34  327.00
   3   1   0  397.15  327.10
   3   1   2 4064.95 3076.33
  -1   3   2 4426.90 3075.21
  -3  -1   4  116.73  125.54
  -1   3   4  141.41  106.05
   3   1   4   81.03  129.46
   3   1   6  -67.04   93.11
  -3  -1   6   14.02   98.78
  -1   3   6   71.88   57.34
   2  -3  -7   54.06   48.87
  -3  -2  -7   51.04   75.58
   3   2  -7    8.45   89.73
  -3  -2  -5   19.43   88.13
   2  -3  -5   81.73   66.13
   2  -3  -3  168.99  110.72
  -3  -2  -3   80.10  122.18
   3   2  -1    1.45   33.74
   2  -3  -1   51.15   77.16
  -3  -2  -1   42.11   45.76
  -3  -2   1   75.94   41.28
  -2   3   1   39.63   85.63
   3   2   1  -43.62   49.21
  -2   3   3   76.96   57.27
   3   2   3  -15.97   76.57
  -2   3   5  -10.19   59.78
   3   2   5  -36.45   85.00
  -3  -2   7   52.12  114.78
   3   2   7    9.81   80.76
  -2   3   7   15.09   51.06
  -3  -3  -6   72.55   66.69
   3  -3  -6   37.67   50.02
   3  -3  -4   66.55   54.89
  -3  -3  -4   32.95   72.69
  -3  -3  -2   42.63   60.73
   3  -3  -2  -34.93   59.57
   3   3   0  731.35  606.57
  -3  -3   0  974.84  606.71
  -3   3   2   51.90   62.55
   3   3   2   16.02   56.28
  -3   3   4   44.12   53.01
   3   3   4  -27.62   62.61
   3   3   6  -50.30   73.20
  -3   3   6  -11.38   56.19
  -3  -4  -7  324.76  172.88
   4  -3  -7  179.18  169.61
   4  -3  -5  413.63  295.44
  -3  -4  -5  403.82  299.00
   4  -3  -3  342.25  384.13
  -3  -4  -3  974.74  387.64
  -3  -4  -1  801.41  519.24
   3   4  -1  586.55  521.77
   3   4   1  522.66  364.50
  -3  -4   1  474.42  367.40
   3   4   3  370.83  176.92
  -4   3   3  152.24  171.16
  -4   3   5  238.94  106.87
   3   4   5   -7.24  111.80
   3   4   7   17.80   60.79
  -4   3   7   35.83   54.12
  -2  -4  -6  904.75  530.22
   4  -2  -6  659.87  528.11
  -2  -4  -4   94.70   94.91
   4  -2  -4  110.31   83.26
  -2  -4  -2 1223.75  907.01
   4  -2  -2 1338.68  908.05
   2   4   0  350.91  289.37
  -2  -4   0  440.97  289.35
   2   4   2  626.53  601.72
  -4   2   2 1171.91  603.48
  -4   2   4   92.23   73.78
   2   4   4   61.67   89.69
   2   4   6  -90.57   62.01
  -4   2   6  113.77   48.80
  -4   1  -7  -70.75  127.96
   4  -1  -7   84.24   55.22
  -1  -4  -7   46.37   58.84
  -4   1  -5   41.67  147.70
  -1  -4  -5  -37.91   55.07
   4  -1  -5   58.04   37.99
  -1  -4  -3  217.88  216.82
   4  -1  -3  323.69  213.12
  -1  -4  -1  720.98  517.70
   1   4   1  444.55  321.47
   1   4   3  176.42  179.17
  -4   1   3  264.03  174.07
   4  -1   5  337.01  187.20
   1   4   5   -3.35  137.30
  -4   1   5  280.60  133.66
   4  -1   7  -15.64  124.78
  -4   1   7   -1.92   54.03
   1   4   7   -2.17   53.14
   4   0  -6  273.22  178.81
  -4   0  -6  -37.73  207.46
   0  -4  -6  261.29  178.89
   4   0  -4 3591.57 2720.08
  -4   0  -4 3587.52 2724.80
   0  -4  -4 4434.93 2721.06
  -4   0  -2  640.83  684.98
   0  -4  -2 1476.14  676.19
   4   0  -2  871.92  673.83
   0   4   0 2650.64 2844.32
   0  -4   0 5536.11 2844.81
   4   0   2  445.26  706.80
   0   4   2  685.18  698.79
  -4   0   2 1062.07  696.78
   0   4   4 1277.64 1795.29
   4   0   4 2360.56 1799.85
  -4   0   4 3449.94 1794.82
   4   0   6   41.16  107.49
  -4   0   6   86.05   62.28
   0   4   6  -38.59   59.27
  -4  -1  -7   98.03  137.46
   4   1  -7  -18.57  124.30
   1  -4  -7  276.03  118.09
   4   1  -5  601.10  574.27
   1  -4  -5  965.78  573.85
  -4  -1  -5  834.90  581.24
   1  -4  -3  957.17  582.24
   4   1  -3  587.97  581.80
  -4  -1  -3 1338.64  590.46
  -4  -1  -1  589.93  425.23
   4   1  -1  568.76  417.77
   1  -4  -1  698.79  425.06
   4   1   1  636.45  512.10
  -1   4   1  615.56  514.68
  -4  -1   1  730.23  507.00
   4   1   3 1213.05  392.20
  -1   4   3  409.38  381.23
  -4  -1   3  448.36  382.19
  -4  -1   5  826.14  295.79
   4   1   5  260.22  299.17
  -1   4   5  209.97  289.42
   4   1   7    4.28   94.34
  -1   4   7    5.90   50.76
  -4  -1   7  -27.90   87.22
   2  -4  -6  628.55  391.42
   4   2  -6  561.04  397.81
  -4  -2  -6  343.53  395.65
   2  -4  -4  146.23  100.97
  -4  -2  -4   67.43  118.32
  -4  -2  -2 3543.95 2123.69
   2  -4  -2 2600.64 2122.90
  -4  -2   0  907.02  573.70
   4   2   0  716.81  573.35
  -2   4   2 2463.71 1824.33
   4   2   2 2659.40 1824.59
  -2   4   4  160.23  124.48
   4   2   4  152.10  139.06
  -2   4   6    7.56   54.05
  -4  -2   6   90.56  105.75
   4   2   6 -112.81   81.14
   3  -4  -7  148.63  140.04
  -4  -3  -7  310.31  151.04
  -4  -3  -5  100.57   81.85
   3  -4  -5   59.74   62.86
  -4  -3  -3  888.06  641.61
   3  -4  -3  899.62  640.65
  -4  -3  -1  295.79  154.57
   4   3  -1  163.95  148.81
  -3   4   1   12.23  160.23
   4   3   1   98.65  104.81
  -4  -3   1  148.99   97.59
  -3   4   3  309.16  271.49
   4   3   3  438.34  271.93
  -3   4   5   11.07   54.36
   4   3   5   60.47   75.68
  -3   4   7  -30.25   52.87
   4   3   7    6.40   75.26
   4  -4  -6  696.46  490.37
  -4  -4  -6  659.88  492.59
  -4  -4  -4  -38.81   54.79
   4  -4  -4   36.06   36.85
  -4  -4  -2 4759.20 3112.49
   4  -4  -2 3889.36 3112.82
   4   4   0  214.44  219.56
  -4  -4   0  396.76  220.05
   4   4   2 1523.11  761.80
  -4   4   2  495.71  762.71
  -4   4   4   86.03   54.43
   4   4   4  -64.63   68.86
   4   4   6   18.53   65.23
  -4   4   6  -12.88   51.27
  -4  -5  -7  137.92  101.13
   5  -4  -7  119.68   94.35
   5  -4  -5   90.25   71.48
  -4  -5  -5   88.50   82.74
  -4  -5  -3  410.40  286.48
   5  -4  -3  371.19  285.60
  -4  -5  -1  479.21  325.25
   4   5  -1  407.12  327.18
   4   5   1  175.32  188.15
  -4  -5   1  377.06  192.99
   4   5   3   54.74   65.94
  -5   4   3  -33.86   72.81
  -5   4   5  -12.53   50.71
   4   5   5    9.29   54.83
   4   5   7  -19.58   58.89
  -5   4   7  -28.42   52.94
   5  -3  -6   17.52   28.89
  -3  -5  -6  -20.37   44.30
  -3  -5  -4  583.85  299.76
   5  -3  -4  350.82  294.76
  -3  -5  -2 1365.73 1026.89
   5  -3  -2 1595.65 1029.67
   3   5   0 2078.45 1715.04
  -3  -5   0 2794.09 1715.37
   3   5   2  375.37  206.29
  -5   3   2   45.17  217.41
   3   5   4   51.01  311.12
  -5   3   4  664.52  308.75
  -5   3   6   51.12   50.10
   3   5   6  -14.38   58.46
   5  -2  -7  120.97   96.92
  -2  -5  -7  138.73  100.56
  -2  -5  -5  386.32  282.37
   5  -2  -5  387.31  278.30
  -2  -5  -3  441.28  270.76
   5  -2  -3  339.18  267.58
   2   5  -1  101.36  117.85
  -2  -5  -1   50.00   68.14
   2   5   1  114.10  127.37
  -2  -5   1  328.20  162.83
  -5   2   3  332.10  205.42
   2   5   3  190.81  209.32
  -5   2   5   88.34   63.51
   2   5   5   19.11   78.97
  -5   2   7  -13.67   42.44
   2   5   7   20.33   55.44
  -1  -5  -6  230.71  105.50
  -5   1  -6  -52.56  163.52
   5  -1  -6  101.92   98.96
  -1  -5  -4 1066.48  626.11
   5  -1  -4  815.98  623.80
  -1  -5  -2  438.75  317.47
  -1  -5   0 3294.70 2542.10
   1   5   0 3860.21 2542.46
  -5   1   2  -36.80   90.54
   1   5   2  182.03   83.43
  -5   1   4  685.51  381.38
   1   5   4  199.69  384.27
   5  -1   6  123.97  120.97
  -5   1   6   24.41   45.45
   1   5   6   -4.23   59.60
   0  -5  -7   90.88  105.06
  -5   0  -7  -57.99  146.15
   5   0  -7  215.67  105.81
  -5   0  -5 1299.24 1067.75
   5   0  -5 1346.76 1058.92
   0  -5  -5 1938.23 1060.73
   0  -5  -3  882.03  730.91
  -5   0  -3  881.30  741.05
   5   0  -3 1057.79  729.12
   0  -5  -1 3470.36 2477.65
   0   5   1 3420.67 2442.12
   0   5   3  411.92  548.46
   5   0   3  720.44  558.24
  -5   0   3  846.64  545.78
   0   5   5   -3.74  323.81
  -5   0   5  757.76  321.22
   5   0   5  228.93  339.64
   5   0   7 -132.59  117.59
  -5   0   7  -14.14   71.60
   0   5   7  -84.07   70.60
  -5  -1  -6  730.09  658.99
   1  -5  -6 1041.80  651.66
   5   1  -6  825.35  651.77
   1  -5  -4 4184.17 2674.62
  -5  -1  -4 2690.93 2676.49
   5   1  -4 3782.17 2673.70
  -5  -1  -2 3270.35 3041.85
   1  -5  -2 4756.15 3040.25
  -5  -1   0 6764.64 5064.42
   5   1   0 7380.91 5064.18
  -1   5   2 2797.18 1897.88
   5   1   2 2415.78 1899.47
   5   1   4 1543.38 1123.76
  -1   5   4  603.80 1118.25
  -5  -1   4 2634.80 1118.51
   5   1   6 -115.53  113.68
  -5  -1   6  171.33   82.59
  -1   5   6   10.34   63.31
   2  -5  -7   62.44   54.60
   5   2  -7   37.31   78.91
  -5  -2  -7   69.78   86.61
   2  -5  -5  301.07  164.97
  -5  -2  -5  140.24  177.84
   5   2  -5   70.32  174.87
  -5  -2  -3  292.08  256.94
   2  -5  -3  360.29  248.76
  -5  -2  -1 1168.00  815.21
   5   2  -1 1138.21  812.43
   2  -5  -1 1073.15  819.15
  -5  -2   1 1858.74 1094.35
   5   2   1 1113.79 1095.81
  -2   5   1  351.69 1098.76
   5   2   3  -66.56   85.99
  -2   5   3   91.33   63.02
  -2   5   5   69.11   76.00
   5   2   5   73.76  100.10
  -2   5   7  -22.85   54.49
  -5  -2   7  -50.34   98.87
   5   2   7    7.58   85.58
   3  -5  -6  125.92   87.69
  -5  -3  -6   67.24  104.36
   3  -5  -4  513.56  449.65
  -5  -3  -4  941.22  454.36
   5   3  -2 1405.74  868.05
   3  -5  -2  912.07  871.43
  -5  -3  -2 1056.14  869.03
  -5  -3   0 7567.51 4752.38
   5   3   0 5948.48 4752.19
  -5  -3   2  793.05  446.86
   5   3   2  386.12  446.71
  -3   5   2  837.82  453.71
   5   3   4   69.85  320.73
  -3   5   4  729.17  318.96
   5   3   6   -2.86   79.06
  -3   5   6  -48.69   60.34
  -5  -4  -7  205.71  183.73
   4  -5  -7  256.31  177.16
  -5  -4  -5  197.91  112.19
   4  -5  -5  109.50  103.45
   4  -5  -3  516.57  537.23
  -5  -4  -3  971.28  537.12
   5   4  -1  263.49  254.19
  -5  -4  -1  593.11  258.64
   5   4   1  201.43  159.85
  -5  -4   1  218.17  156.48
  -4   5   3  244.37  173.35
   5   4   3  200.29  166.47
   5   4   5   10.12   60.87
  -4   5   5    1.59   53.79
  -4   5   7   14.16   49.78
   5   4   7  -43.57   67.60
   5  -5  -6  -12.33   28.56
  -5  -5  -6  123.84   54.33
   5  -5  -4  431.65  203.09
  -5  -5  -4   69.24  205.12
   5  -5  -2  166.01  137.39
  -5  -5  -2  125.47  100.84
   5   5  -2   84.50  106.17
  -5  -5   0  804.94  416.92
   5   5   0  378.39  416.56
  -5  -5   2   81.39   77.95
   5   5   2   -9.76   61.34
  -5   5   2 -126.24  115.38
  -5   5   4  -18.57   60.35
   5   5   4   24.86   62.02
   5   5   6  -29.60   57.63
  -5   5   6  -11.02   55.18
  -5  -6  -5 1357.48  796.39
   6  -5  -5  994.43  794.40
   6  -5  -3 1785.83 1293.90
  -5  -6  -3 1827.85 1293.20
   5   6  -1 2386.44 2238.88
  -5  -6  -1 4212.36 2239.50
   5   6   1 1171.91 1360.60
  -5  -6   1 3495.78 1362.69
  -6   5   3  -32.92  102.68
   5   6   3   78.39   73.38
  -6   5   5   21.83   54.57
   5   6   5   41.48   59.70
  -4  -6  -6 1671.90 1248.68
   6  -4  -6 1788.09 1247.48
  -4  -6  -4   91.72  106.48
   6  -4  -4  152.62  101.42
   4   6  -2 2291.41 4021.85
  -4  -6  -2 8336.80 4021.35
   4   6   0  123.97   56.54
  -4  -6   0 -111.63   58.49
   4   6   2 1357.38  971.33
   4   6   4   11.68   66.67
  -6   4   4  -24.01   54.06
  -6   4   6   38.21   52.50
   4   6   6  -11.26   58.31
   6  -3  -7   68.46   40.39
  -3  -6  -7  -16.89   51.21
   6  -3  -5   50.13   41.38
  -3  -6  -5   20.71   57.54
  -3  -6  -3  364.96  229.03
   6  -3  -3  234.95  231.90
   3   6  -1   74.97   81.79
  -3  -6  -1   -5.04   53.11
  -3  -6   1  167.28   94.32
   3   6   1   -4.66   56.74
  -6   3   3  161.38   80.87
   3   6   3  -34.82   64.11
   3   6   5 -134.29   70.55
  -6   3   5   12.96   49.29
  -6   3   7   34.06   50.20
   3   6   7   19.86   58.15
  -2  -6  -6 1580.31  570.17
   6  -2  -6  606.87  565.78
  -2  -6  -4  -31.45   49.53
   6  -2  -4   -9.18   31.31
  -2  -6  -2 4558.89 3253.00
   2   6   0  -81.67   91.16
  -2  -6   0  -12.49   91.72
   2   6   2 1290.13  923.17
   2   6   4    8.41   67.25
  -6   2   4   28.98   39.63
   2   6   6  -59.03   98.50
  -6   2   6  214.06   89.97
  -6   1  -7  171.09  122.66
  -1  -6  -7    2.39   41.22
   6  -1  -7   -4.47   24.72
   6  -1  -5  480.04  403.00
  -1  -6  -5  875.11  406.25
  -6   1  -5  357.94  434.24
  -1  -6  -3   21.77   54.40
   6  -1  -3   29.44   41.77
  -1  -6  -1 1644.96 1176.42
   1   6   1  434.53  318.93
  -6   1   3    5.22   43.35
   1   6   3   70.15   63.87
  -6   1   5  388.83  168.95
   1   6   5  -30.50  173.40
   1   6   7    7.43   62.03
  -6   1   7   43.30   42.34
   6  -1   7 -138.12  128.53
   6   0  -6  627.81  393.67
  -6   0  -6  594.91  413.75
   0  -6  -6  399.43  395.07
  -6   0  -4 1260.17  806.36
   6   0  -4 1129.25  791.55
   0  -6  -4 1016.93  793.26
   0  -6  -2 5850.09 4209.76
  -6   0  -2 6057.92 4212.96
   0  -6   0 1496.03  589.49
   0   6   0  178.85  588.40
   0   6   2 1874.59 1820.49
   6   0   2 5294.79 1826.73
   0   6   4   45.69  423.69
   6   0   4  410.94  438.06
  -6   0   4  778.56  419.78
   0   6   6   40.74  103.09
  -6   0   6  169.54   94.34
   6   0   6   53.43  139.16
   1  -6  -7  160.61  196.88
   6   1  -7  336.89  198.94
  -6  -1  -7  788.99  223.78
   1  -6  -5  928.75  747.17
  -6  -1  -5 1090.31  756.54
   6   1  -5 1117.31  746.46
   6   1  -3 2618.35 1884.34
   1  -6  -3 2976.87 1886.13
  -6  -1  -3 2540.77 1890.58
  -6  -1  -1 3925.51 2583.72
   6   1  -1 3101.74 2581.24
   1  -6  -1 4735.99 2583.69
   6   1   1 4024.52 2668.88
  -1   6   1 1757.94 2668.83
  -6  -1   1 4743.78 2667.54
  -6  -1   3 2726.04 1726.39
   6   1   3 2445.64 1731.70
  -1   6   3  284.03 1727.46
  -1   6   5   47.46  293.21
   6   1   5  -56.89  306.01
  -1   6   7   26.20   56.56
  -6  -1   7   50.16   67.94
   6   1   7   -9.38  104.41
   6   2  -6   16.58  168.51
   2  -6  -6  260.55  162.80
  -6  -2  -6  539.28  185.13
   2  -6  -4  817.30  607.08
  -6  -2  -4  946.41  613.24
   6   2  -2 2320.35 1601.53
   2  -6  -2 1552.81 1604.00
  -6  -2  -2 1963.42 1604.41
   6   2   0 4076.05 2993.82
  -6  -2   0 4337.06 2993.99
  -6  -2   2 2320.06 1465.88
  -2   6   2  495.78 1468.34
   6   2   2  999.30 1468.26
   6   2   4  130.56  143.69
  -2   6   4  166.98  127.29
   6   2   6  -54.84   89.03
  -6  -2   6   44.56   87.11
  -2   6   6  -45.60   59.53
  -6  -3  -7   94.15   72.60
   3  -6  -7   15.13   36.22
   3  -6  -5   63.49   75.01
  -6  -3  -5  175.72   95.92
   3  -6  -3   77.46   92.71
  -6  -3  -3  143.79  104.60
   3  -6  -1  323.70  269.74
   6   3  -1  296.20  235.96
  -6  -3  -1  425.04  240.46
  -3   6   1 -286.17  217.93
  -6  -3   1  314.24  171.52
   6   3   1  152.59  174.27
  -3   6   3   53.52   86.64
   6   3   3   76.55   88.98
  -3   6   5  -19.53   60.52
   6   3   5  -15.22   75.05
   6   3   7   14.17   74.61
  -3   6   7   10.77   54.23
   4  -6  -6  612.15  456.08
  -6  -4  -6  688.33  459.10
   4  -6  -4  263.66  366.87
  -6  -4  -4 1093.20  371.11
  -6  -4  -2 2556.41 1439.26
   6   4  -2 1722.43 1437.79
   4  -6  -2 2375.03 1441.67
  -6  -4   0 1702.72  778.85
   6   4   0  660.81  778.09
  -4   6   2   43.30  919.16
  -6  -4   2 2204.96  916.20
   6   4   2  935.36  916.04
   6   4   4  106.01   78.29
  -4   6   4   13.95   76.43
  -4   6   6  -32.61   63.72
   6   4   6  -36.02   73.19
   5  -6  -5   93.20  137.90
  -6  -5  -5  509.44  147.95
   5  -6  -3  306.65  148.74
  -6  -5  -3  103.18  135.43
   6   5  -1  147.29  171.39
  -6  -5  -1  411.77  176.01
   6   5   1  378.47  216.74
  -6  -5   1  239.46  213.95
  -5   6   3   31.20  102.83
   6   5   3   49.32   68.78
  -5   6   5   65.85   79.40
   6   5   5   85.55   78.42
   6  -6  -6  289.72  186.92
  -6  -6  -6  192.62  190.19
   6  -6  -4  710.57  703.40
  -6  -6  -4 1339.27  704.45
  -6  -6  -2 2133.39 1632.60
   6   6  -2 2487.00 1633.30
   6   6   0  631.69  984.97
  -6  -6   0 2891.04  986.79
   6   6   2   31.54  392.69
  -6  -6   2 2110.46  401.94
  -6   6   4   47.61   71.11
   6   6   4    3.99   62.49
  -6   6   6  -18.28   47.85
   6   6   6   53.51   58.58
  -6  -7  -5  251.76  117.21
   7  -6  -5   94.25  109.31
   7  -6  -3  374.61  290.14
  -6  -7  -3  393.81  283.14
   6   7  -1  179.51  370.80
  -6  -7  -1  944.64  372.24
  -6  -7   1  522.69  160.32
   6   7   1  -10.39  155.20
  -7   6   3   36.36  107.53
   6   7   3  -44.35   63.85
   6   7   5  -16.63   61.83
  -7   6   5   32.37   59.02
  -5  -7  -6   46.83   98.72
   7  -5  -6  156.06   92.82
  -5  -7  -4   90.42   70.40
   7  -5  -4   44.13   73.25
  -5  -7  -2 1229.58  656.04
   5   7  -2  434.96  658.39
   5   7   0   69.04   62.57
  -5  -7   0    4.51   62.85
   5   7   2  -39.52   68.17
  -5  -7   2  308.29  106.56
   5   7   4  -31.16   66.12
  -7   5   4  -45.28   79.10
  -7   5   6  -24.65   54.12
   5   7   6  -58.37   60.03
  -4  -7  -5 1477.06  754.65
   7  -4  -5  895.83  751.88
  -4  -7  -3   79.26   99.82
   7  -4  -3  169.93  112.99
   4   7  -1  768.66  607.71
  -4  -7  -1  869.62  602.60
  -4  -7   1 1647.59  420.92
   4   7   1  324.36  407.72
  -7   4   3   24.42   90.81
   4   7   3    1.75   64.61
   4   7   5   29.81   61.09
  -7   4   5  -26.42   47.07
   7  -3  -6  186.67  148.99
  -3  -7  -6  265.84  154.37
  -3  -7  -4  229.65  186.23
   7  -3  -4  269.08  185.00
  -3  -7  -2 1190.12  851.62
   3   7   0  134.98  113.99
  -3  -7   0   94.26  110.64
   3   7   2  191.72  152.17
  -7   3   4  -60.29   51.58
   3   7   4   60.56   57.30
   3   7   6  -20.15   63.68
  -7   3   6  -10.63   42.31
   7  -2  -5  221.27  164.93
  -2  -7  -5  249.27  169.28
   7  -2  -3  264.81  103.89
  -2  -7  -3   13.45   93.39
   2   7  -1 -182.68  189.80
  -2  -7  -1  330.30  157.97
   2   7   1   19.98   80.03
  -2  -7   1  234.66  130.00
   2   7   3  -62.61   67.20
  -7   2   3   60.56   69.89
   2   7   5  -28.22   67.84
  -7   2   5   81.08   49.85
   7  -1  -6   35.61   42.57
  -1  -7  -6   74.76   54.36
  -7   1  -6  172.08  151.50
  -1  -7  -4   69.10   70.21
   7  -1  -4   73.86   57.55
  -1  -7  -2   21.09   58.65
  -1  -7   0   62.37   98.41
   1   7   0   -4.25  100.34
   1   7   2  -12.82   67.22
   1   7   4  -62.97   93.61
  -7   1   4  134.17   73.05
  -7   1   6   32.19   40.30
   1   7   6  -18.68   62.22
   0  -7  -7  149.08  118.83
  -7   0  -7  380.60  173.03
   7   0  -7  150.93  115.94
   7   0  -5   38.49   27.95
   0  -7  -5  -24.08   45.84
  -7   0  -5  -16.44  137.31
   0  -7  -3  516.95  352.97
  -7   0  -3  370.24  381.32
   7   0  -3  480.95  350.80
   0  -7  -1 -124.26  131.60
   0   7   1  -70.56  113.31
  -7   0   3  346.30  204.82
   0   7   3   75.31  210.27
   7   0   3  567.35  244.06
   0   7   5  -31.19   65.86
   7   0   5   53.17  112.19
  -7   0   5  -23.26   33.55
   0   7   7    5.32   64.42
   7   0   7   -5.22  103.07
   1  -7  -6  108.63   72.66
  -7  -1  -6   76.57  127.02
   7   1  -6   68.56   68.05
   7   1  -4  679.80  411.33
  -7  -1  -4  454.52  430.02
   1  -7  -4  173.32  413.12
  -7  -1  -2  245.02  157.71
   1  -7  -2  105.34  121.77
  -7  -1   0 3067.47 1152.85
   7   1   0 1567.43 1149.52
  -1   7   0  -53.48 1154.54
  -1   7   2  -83.82  110.38
   7   1   2 -133.40  129.79
   7   1   4  270.77  451.98
  -1   7   4    8.92  441.07
  -7  -1   4  746.97  437.59
   7   1   6  -34.54   99.19
  -1   7   6  -12.76   56.87
  -7  -1   6   28.67   49.79
   7   2  -5   42.97   93.68
   2  -7  -5  183.28   91.08
  -7  -2  -5   40.05  125.39
  -7  -2  -3 1901.71  306.54
   2  -7  -3 2274.03  293.26
   2  -7  -1  314.83  270.36
  -7  -2  -1  213.69  257.91
   7   2  -1  386.09  249.00
  -2   7   1  111.37  295.73
  -7  -2   1  453.69  274.00
   7   2   1  291.14  280.44
  -2   7   3  -64.55  175.92
   7   2   3  720.30  187.43
  -2   7   5   31.35   58.25
   7   2   5  -15.67   88.27
   3  -7  -6  116.94   82.98
  -7  -3  -6   57.87  106.96
  -7  -3  -4   77.44   81.42
   3  -7  -4  -11.10   47.15
  -7  -3  -2 1106.52  432.27
   7   3  -2  530.92  424.92
   3  -7  -2  766.24  436.07
   7   3   0   15.60   47.66
  -7  -3   0   68.12   51.05
  -7  -3   2  729.43  436.79
  -3   7   2  -42.45  451.46
   7   3   2  241.85  441.53
   7   3   4   -4.69   77.49
  -3   7   4  -13.18   60.96
  -3   7   6   49.29   60.85
   7   3   6  -54.42   83.33
  -7  -4  -5  -11.67   65.60
   4  -7  -5   47.60   43.65
   7   4  -3  509.87  240.77
   4  -7  -3  279.54  246.05
  -7  -4  -3  144.76  241.97
   7   4  -1   58.38   85.16
  -7  -4  -1  254.16   96.42
  -7  -4   1  193.81  101.74
   7   4   1   40.41  105.21
   7   4   3   -3.18   61.24
  -4   7   3  -74.47  100.15
   7   4   5  -60.82   79.32
  -4   7   5  -50.76   66.03
   5  -7  -6  117.59  106.31
  -7  -5  -6  199.23  112.43
   5  -7  -4  501.46  338.64
  -7  -5  -4  431.32  338.72
  -7  -5  -2   67.88  141.25
   5  -7  -2  113.71  171.80
   7   5  -2  230.90  132.92
   7   5   0  818.41  877.41
  -7  -5   0 1925.81  878.50
  -5   7   2  253.61  139.33
  -7  -5   2   74.76   64.22
   7   5   2   -4.33   73.05
  -5   7   4   52.13   74.93
   7   5   4    1.88   59.08
  -5   7   6  -46.18   55.10
   7   5   6   59.33   57.59
   6  -7  -5   58.24  136.41
  -7  -6  -5  489.05  144.29
  -7  -6  -3   25.56  148.00
   6  -7  -3   86.14  158.91
  -7  -6  -1  -75.36   70.85
   7   6  -1  -57.09   59.85
   7   6   1   30.69  148.90
  -7  -6   1  313.14  146.03
   7   6   3   -1.86   58.28
  -6   7   3 -110.49  107.49
  -7  -6   3   95.12   87.16
  -6   7   5   83.21   66.97
   7   6   5  -55.77   58.73
  -7  -7  -4   74.59   71.44
   7  -7  -4   42.34   80.99
  -7  -7  -2  153.64   71.47
   7   7  -2  -19.63   72.15
  -7  -7   0  704.49  199.84
   7   7   0   10.87  196.10
   7   7   2  -28.99   60.38
  -7  -7   2   27.36   69.29
   7   7   4  -17.79   63.78
  -7   7   4  155.23  102.02
  -7  -8  -5  147.69   79.93
   8  -7  -5   32.82   74.60
  -7  -8  -3  926.29  519.34
   7   8  -3  145.33  521.17
   8  -7  -3 1522.89  532.10
   7   8  -1  -13.56  173.05
  -7  -8  -1  682.16  177.57
  -7  -8   1  401.41  121.24
   7   8   1  -11.69  116.29
   7   8   3  -40.93   57.13
  -7  -8   3   73.57   94.54
  -8   7   3   14.58  117.56
   7   8   5   20.50   62.86
  -8   7   5   28.52   76.35
  -6  -8  -4  963.18  472.47
   8  -6  -4  374.30  472.02
   6   8  -2   59.99  151.50
  -6  -8  -2  247.61  141.92
  -6  -8   0  965.64  255.82
   6   8   0   56.30  249.94
   6   8   2   34.55  102.03
  -6  -8   2  230.46  112.20
  -8   6   4   11.40   95.72
   6   8   4   79.56   73.59
  -5  -8  -5  110.48   62.70
   8  -5  -5   22.56   56.54
  -5  -8  -3  357.76  260.96
   5   8  -1   30.35   88.07
  -5  -8  -1   53.74   63.18
   5   8   1   21.28   67.42
  -5  -8   1  145.70   97.90
   5   8   3    7.77   60.45
  -8   5   3  -29.23  118.93
   5   8   5   -7.22   62.78
  -8   5   5  -27.42   58.20
  -4  -8  -6  -13.05   47.50
   8  -4  -6   42.71   31.56
   8  -4  -4  498.54  439.01
  -4  -8  -4  710.31  438.62
   4   8  -2   -8.62  143.99
  -4  -8  -2  109.06   83.17
   4   8   0  194.52  528.88
  -4  -8   0 1575.08  532.02
   4   8   2   70.17   82.40
   4   8   4   -9.81   63.50
  -8   4   4  -58.85   77.82
   4   8   6   10.67   62.67
  -8   4   6   40.74   47.74
   8  -3  -5   39.58   56.18
  -3  -8  -5  139.20   65.92
  -3  -8  -3  -24.68   54.81
  -3  -8  -1   -1.82   66.87
   3   8  -1  -62.49  102.06
   3   8   1   -8.77   78.50
  -3  -8   1  186.84  112.07
   3   8   3   -7.45   65.48
   3   8   5   32.89   59.80
  -8   3   5    3.68   42.81
   8  -2  -6   52.86   41.49
  -2  -8  -6   40.77   53.36
  -2  -8  -4  531.07  398.05
   8  -2  -4  571.22  397.44
  -2  -8  -2  512.84  371.74
   2   8   0   96.19  239.51
  -2  -8   0  499.50  239.29
   2   8   2   17.47   71.04
   2   8   4  -27.28   67.20
  -8   2   4   23.77   49.25
   2   8   6  -12.11   60.41
  -8   2   6    6.02   38.40
  -1  -8  -5  266.16  132.11
   8  -1  -5  153.77  125.00
  -1  -8  -3  320.54  235.09
  -1  -8  -1 -147.73  137.86
   1   8   1   59.76  101.98
   1   8   3   49.94   68.04
   1   8   5  -14.84  114.40
  -8   1   5  200.20  105.74
   8   0  -6   69.01   58.19
   0  -8  -6   87.80   64.75
  -8   0  -6  100.81  135.42
  -8   0  -4 1844.42 1088.50
   0  -8  -4 1958.82 1077.21
   8   0  -4 1408.87 1075.05
   0  -8  -2  519.38  377.93
   0   8   0  -44.10  253.82
   0  -8   0  691.91  256.10
   0   8   2 -108.28  112.94
  -8   0   4 1381.90  761.22
   0   8   4   60.67  763.06
   8   0   4 1099.97  773.55
   0   8   6   21.18   58.62
   8   0   6  -19.29  107.52
  -8   0   6    4.19   30.10
   8   1  -5  344.73  214.37
  -8  -1  -5   57.02  243.08
   1  -8  -5  142.11  217.82
   1  -8  -3  401.44  259.77
  -8  -1  -3  129.85  286.17
  -8  -1  -1  591.27  590.18
   1  -8  -1  983.47  587.58
  -8  -1   1  291.11  277.95
  -1   8   1   28.93  280.34
   8   1   1  766.78  279.30
  -1   8   3   91.65  127.59
   8   1   3  257.62  153.80
  -8  -1   5  878.96  406.14
   8   1   5  -48.25  418.04
  -1   8   5  -51.32  408.75
   2  -8  -6   -2.10   39.24
   8   2  -6   54.53   42.45
  -8  -2  -6   29.96   86.72
   8   2  -4  189.71  208.77
  -8  -2  -4  531.58  232.12
   8   2  -2 1372.85  879.52
  -8  -2  -2  772.58  885.56
   2  -8  -2  882.24  884.71
  -8  -2   0 1005.31  864.15
   8   2   0 1413.57  864.26
  -8  -2   2  713.87  408.44
   8   2   2  211.64  416.20
  -2   8   2   65.11  421.55
   8   2   4   32.58   96.41
  -2   8   4   52.31   72.31
  -2   8   6  -37.23   57.85
   8   2   6   61.18   90.12
  -8  -3  -5   14.70   82.72
   3  -8  -5  -23.22   36.06
   3  -8  -3   99.92  128.71
  -8  -3  -3  213.60  139.79
   8   3  -3  154.47  110.63
   3  -8  -1  236.96  200.99
  -8  -3  -1  170.85  157.63
   8   3  -1  208.88  148.17
  -8  -3   1 1120.35  549.01
  -3   8   1   23.99  566.94
   8   3   1  218.19  550.86
  -8  -3   3  207.47  117.13
  -3   8   3 -100.03  142.80
   8   3   3  -43.47  139.65
   8   3   5    2.98   81.33
  -3   8   5    1.97   54.18
   4  -8  -6   85.94   60.63
  -8  -4  -6   18.51   85.78
   4  -8  -4  220.35  205.57
  -8  -4  -4  385.45  211.90
   4  -8  -2  269.33  167.42
   8   4  -2   75.78  136.50
   8   4   0  148.18  154.28
  -8  -4   0  292.23  157.16
  -8  -4   2  256.63  129.92
  -4   8   2 -162.54  175.35
   8   4   2   49.65  136.27
  -4   8   4   85.37   81.55
   8   4   4   33.08   80.50
  -4   8   6   10.91   50.93
   8   4   6  -21.91   66.73
   5  -8  -5   70.21  149.60
  -8  -5  -5  448.60  155.22
   8   5  -3   53.11   68.17
  -8  -5  -3   24.01   78.36
   5  -8  -3  246.16   95.17
  -8  -5  -1  272.33  105.95
   8   5  -1   65.55   95.60
  -8  -5   1  173.71  113.47
   8   5   1  101.12  119.49
  -5   8   3 -111.39  105.18
  -8  -5   3   35.08   53.00
   8   5   3   43.61   59.04
  -5   8   5  138.84   73.80
   8   5   5  -14.28   69.17
  -8  -6  -4 1026.36  644.20
   6  -8  -4  765.92  644.25
  -8  -6  -2   84.83   62.08
   8   6  -2  -22.34   39.32
  -8  -6   0 1849.92  353.43
   8   6   0   -1.14  348.65
   8   6   2  -47.20   61.57
  -8  -6   2  -35.85   53.84
  -6   8   2   -8.17  161.77
  -6   8   4   81.61   93.02
   8   6   4  -19.86   54.63
   7  -8  -5   47.90   58.17
  -8  -7  -5   60.68   64.24
   8   7  -3  379.78  285.51
  -8  -7  -3  515.50  287.02
   7  -8  -3  176.10  294.64
  -8  -7  -1  353.46   97.36
   8   7  -1   -5.58   89.91
   8   7   1   -1.52  121.91
  -8  -7   1  288.25  120.02
   8   7   3   28.41  158.25
  -7   8   3 -163.16  191.29
  -7   8   5   34.58   82.71
   8   7   5  -80.94   64.98
  -8  -8  -4  138.80  169.03
   8  -8  -4  341.93  172.69
  -8  -8  -2  409.48  136.63
   8   8  -2    3.08  133.47
  -8  -8   0  561.95  186.45
   8   8   0   -1.54  184.80
   8   8   2  -64.28   60.91
  -8  -8   2  216.17   69.38
   8   8   4   28.98   64.91
  -8   8   4   80.08  105.24
  -8  -9  -3  151.57   82.39
   8   9  -3  -15.95   93.53
  -8  -9  -1  167.84   75.56
   8   9  -1   -6.75   74.98
  -8  -9   1  177.91   82.66
   8   9   1    9.27   80.92
   8   9   3   80.28   71.51
  -8  -9   3   33.96   91.79
  -7  -9  -4  123.06   83.27
   9  -7  -4   37.19   99.89
  -7  -9  -2    4.24   48.75
   7   9  -2  -51.32   68.77
   7   9   0   55.08   62.39
  -7  -9   0   42.70   61.06
  -7  -9   2   68.27   87.10
   7   9   2   29.63   65.28
   7   9   4   16.70   63.21
  -9   7   4   60.45  101.13
  -6  -9  -5  201.85   74.72
   9  -6  -5  -34.80   76.59
  -6  -9  -3  244.57  137.69
   6   9  -3  -51.87  163.94
   6   9  -1   86.73   74.24
  -6  -9  -1   17.76   57.20
  -6  -9   1   44.19   99.31
   6   9   1  114.31   83.75
   6   9   3   31.04   63.16
   6   9   5  -32.60   63.96
  -9   6   5   38.44   76.40
   9  -5  -4  100.66   82.88
  -5  -9  -4   57.26   70.12
  -5  -9  -2  386.03  191.82
   5   9  -2  -95.21  209.61
   5   9   0  -52.84  145.43
  -5  -9   0  486.27  149.63
  -5  -9   2  340.64  116.73
   5   9   2  -40.79   69.61
   5   9   4  -13.24   60.33
  -9   5   4  -56.02   85.45
  -4  -9  -5  438.60  283.68
   9  -4  -5  352.64  282.71
  -4  -9  -3  906.21  650.07
   4   9  -1   -2.79  390.30
  -4  -9  -1  820.60  384.16
  -4  -9   1  869.79  189.15
   4   9   1  -50.02  168.97
   4   9   3   53.48   69.96
   4   9   5   56.86   65.76
  -9   4   5   35.85   63.27
  -3  -9  -6  393.82  171.61
   9  -3  -6  182.72  166.80
   9  -3  -4  676.98  341.54
  -3  -9  -4  350.41  338.90
  -3  -9  -2  274.51  204.07
  -3  -9   0 1223.80  411.52
   3   9   0   38.00  408.06
   3   9   2   28.58   69.08
  -9   3   4  -27.98   70.16
   3   9   4  -25.27   64.06
   3   9   6   27.74   61.32
   9  -2  -5  101.13   62.45
  -2  -9  -5   30.77   69.77
  -2  -9  -3  375.72  273.22
   2   9  -1   -3.20  277.18
  -2  -9  -1  474.63  256.15
   2   9   1   38.09  135.63
  -2  -9   1  410.15  172.59
   2   9   3   -5.31   56.21
   2   9   5  -36.65   58.72
  -9   2   5   12.99   38.58
  -9   1  -6  101.37  141.89
  -1  -9  -6   17.71   42.47
   9  -1  -4   24.55   97.81
  -1  -9  -4  258.01  100.34
  -1  -9  -2   86.28   91.49
   1   9   0  211.24  218.11
  -1  -9   0  301.48  216.84
   1   9   2  -86.73   94.06
   1   9   4  -10.67   61.85
  -9   1   4  -16.73   53.09
   1   9   6  -13.12   60.97
  -9   0  -5   65.55  136.10
   9   0  -5   57.16   47.26
   0  -9  -5   96.38   61.41
   0  -9  -3  175.06  131.26
  -9   0  -3  106.99  193.34
   0  -9  -1   53.77  110.51
   0   9   1  190.62  184.94
   0   9   3 -120.37  116.09
  -9   0   5   57.45   41.73
   9   0   5   46.61  118.81
   0   9   5  -21.16   68.70
  -9  -1  -6   52.58  121.94
   1  -9  -6   38.98   43.98
   9   1  -4  239.15  184.64
  -9  -1  -4  723.86  233.30
   1  -9  -4  301.60  190.32
  -9  -1  -2  542.56  233.44
   1  -9  -2  163.09  196.32
  -9  -1   0 1857.29  805.49
   1  -9   0 2068.63  814.23
   9   1   0  769.68  801.15
  -1   9   0  -30.58  812.30
   9   1   2   11.36  113.19
  -1   9   2  -19.06   99.35
  -9  -1   4  219.08  139.10
   9   1   4  -83.58  177.32
  -1   9   4  -19.40  152.23
  -1   9   6  -35.09   68.08
   9   1   6  -38.06  107.06
  -9  -2  -5 -150.37  106.50
   2  -9  -5  -29.46   37.53
   9   2  -3  117.67   75.35
   2  -9  -3   31.49   93.37
  -9  -2  -3   12.01  126.06
   2  -9  -1  -85.63  139.78
   9   2  -1  154.91   91.83
  -9  -2  -1   62.12  114.28
  -2   9   1   56.52  134.27
   9   2   1   -2.14  100.67
  -9  -2   1   35.57   72.76
  -2   9   3   49.34   80.48
   9   2   3   75.52  100.94
  -9  -2   3    7.04   22.38
   9   2   5  -66.36  100.94
  -2   9   5   -6.06   55.63
  -9  -3  -6  -28.74   76.90
   3  -9  -6   19.48   32.71
   3  -9  -4   24.93   46.34
  -9  -3  -4  -76.45   88.74
   3  -9  -2  151.13  142.57
  -9  -3  -2  210.01  137.84
   9   3  -2  146.07  110.96
   9   3   0   63.00  109.13
  -9  -3   0  234.68  115.82
  -3   9   2 -153.47  134.45
   9   3   2  -16.30   94.38
  -3   9   4   19.40   73.31
   9   3   4  -69.84   79.37
   9   3   6   56.17   85.28
  -3   9   6  -12.24   65.40
   4  -9  -5  -34.27   44.12
  -9  -4  -5  -24.05   78.96
  -9  -4  -3  929.13  341.56
   9   4  -3  414.02  331.40
   4  -9  -3  767.70  342.61
  -9  -4  -1   61.93   71.71
   9   4  -1   68.22   59.42
  -9  -4   1  262.52  133.01
   9   4   1   80.15  133.79
  -9  -4   3  427.07  240.30
   9   4   3  119.24  248.02
  -4   9   3  -51.89  257.61
   9   4   5   70.71   75.83
  -4   9   5    9.99   67.52
   9   5  -4  669.02  276.79
   5  -9  -4  262.09  277.53
  -9  -5  -4  172.84  277.51
   5  -9  -2   36.81  123.67
   9   5  -2   54.56   57.22
  -9  -5  -2  124.67   73.65
   9   5   0  262.51  462.91
  -9  -5   0 1491.73  465.70
  -9  -5   2   40.42   37.05
  -5   9   2   19.55  145.34
   9   5   2  -29.76   54.76
  -5   9   4  -17.50   80.61
   9   5   4  -11.02   55.10
   6  -9  -5   23.44   61.27
  -9  -6  -5  123.22   71.56
  -9  -6  -3 1041.14  436.63
   9   6  -3  445.72  432.13
   6  -9  -3  773.63  441.42
  -9  -6  -1  697.82  140.85
   9   6  -1   16.46  128.88
   9   6   1    6.10  216.44
  -9  -6   1  569.10  216.14
  -6   9   3  -66.02  202.50
   9   6   3  -39.74  178.46
  -6   9   5   24.71   73.10
   9   6   5   44.17   61.39
   7  -9  -4  194.51  191.40
   9   7  -4  200.25  191.12
  -9  -7  -4  342.19  189.33
  -9  -7  -2   80.37   54.32
   9   7  -2  -28.54   36.31
  -9  -7   0  597.77  175.09
   9   7   0   -2.69  172.53
  -9  -7   2  141.68   77.11
   9   7   2    7.73   82.69
  -7   9   4   15.29  110.46
   9   7   4    2.12   51.16
  -9  -8  -3   62.28   75.18
   8  -9  -3  214.26  129.10
   9   8  -3   68.31   79.57
  -9  -8  -1  181.98   73.34
   9   8  -1    7.95   63.82
   9   8   1   77.85   80.39
  -9  -8   1   98.37   76.18
   9   8   3  -29.83   57.16
  -9  -8   3   85.82   70.91
  -8   9   3  -56.79  119.07
  -9  -9  -4    8.21   51.04
   9  -9  -4  -53.22   80.47
   9   9  -4   15.10   75.18
   9   9  -2   -1.62   87.55
  -9  -9  -2  250.54   90.84
   9   9   0   22.43   59.72
  -9  -9   0   72.84   57.64
   9   9   2   14.15   87.81
  -9  -9   2  193.57   90.26
   9   9   4   34.57   65.25
  -9   9   4   39.37  105.94
   9  10  -3  -20.71   68.68
  -9 -10  -3   -2.50   45.71
  -9 -10  -1  182.79   84.61
   9  10  -1   14.55   84.27
  -9 -10   1  251.32  115.57
   9  10   1   26.45  116.73
   9  10   3  -49.46   58.05
  -9 -10   3   65.88   74.26
  10  -8  -4  543.02  229.35
  -8 -10  -4  225.68  212.55
  -8 -10  -2   16.42   47.77
   8  10  -2   -9.17   64.30
   8  10   0   38.48  123.39
  -8 -10   0  326.26  127.27
   8  10   2    9.24   62.16
  -8 -10   2   -5.59   75.97
   8  10   4   63.96   66.43
 -10   8   4  -28.78  123.87
  -7 -10  -3  173.45  114.50
   7  10  -3   57.37  134.55
   7  10  -1   46.27  192.02
  -7 -10  -1  418.51  189.89
  -7 -10   1  230.76   88.49
   7  10   1   -3.69   75.24
   7  10   3  -62.65   63.35
  -7 -10   3   81.51  105.46
  -6 -10  -4  245.76  185.87
  10  -6  -4  269.15  199.66
  -6 -10  -2  580.87  267.33
   6  10  -2  -24.68  272.53
   6  10   0  -63.97   70.09
  -6 -10   0  146.11   67.18
  -6 -10   2  923.24  155.38
   6  10   2  -57.45  131.30
   6  10   4   85.97   75.18
 -10   6   4   -9.66  114.74
  10  -5  -5  126.94  115.76
  -5 -10  -5  160.51  114.10
  -5 -10  -3  -16.44   48.65
  -5 -10  -1  -66.78   65.59
   5  10  -1   22.80   91.80
  -5 -10   1  -47.60   95.51
   5  10   1  -27.12   71.30
   5  10   3   20.24   61.20
   5  10   5   90.77   72.58
 -10   5   5    7.65   90.09
  -4 -10  -4  327.45  239.04
  -4 -10  -2  716.62  425.88
   4  10  -2  174.10  437.61
  -4 -10   0 1297.59  349.33
   4  10   0   -2.56  344.14
  -4 -10   2  693.72  158.10
   4  10   2  -18.67   76.60
   4  10   4  -11.99   60.13
 -10   4   4  -44.45   92.49
  -3 -10  -5  158.45  141.50
  10  -3  -5  225.03  142.78
  -3 -10  -3   43.08   52.91
  -3 -10  -1   -2.47   77.06
   3  10  -1  165.05  110.22
  -3 -10   1   69.62  117.55
   3  10   1  -88.66   83.77
   3  10   3  -45.34   65.72
   3  10   5  -16.13   70.55
 -10   3   5  -26.22   56.44
  -2 -10  -4   50.67   53.25
  -2 -10  -2  188.47  148.11
   2  10   0 -128.15  120.42
  -2 -10   0   87.68   97.08
   2  10   2  -43.74   77.73
   2  10   4   64.78   70.80
 -10   2   4    6.84   75.49
  10  -1  -5  104.44  107.59
  -1 -10  -5  279.00  114.01
  -1 -10  -3   -4.79   51.56
   1  10  -1   25.45  182.97
  -1 -10  -1  162.35  131.23
   1  10   1  -97.87  124.99
   1  10   3  -78.91   88.91
   1  10   5  -50.62   74.40
   0 -10  -4  634.65  454.53
 -10   0  -4  608.50  482.40
   0 -10  -2  715.00  517.06
   0  10   0  -80.73  149.13
   0 -10   0  190.55  135.61
   0  10   2  -13.45   94.19
  10   0   4  180.71  127.83
 -10   0   4   49.98   65.44
   0  10   4   37.04   74.97
   1 -10  -5 1359.44  818.28
 -10  -1  -5  389.89  826.07
   1 -10  -3  345.04  294.35
 -10  -1  -3  707.52  324.09
 -10  -1  -1 1912.68 1445.32
   1 -10  -1 2088.70 1443.03
  10   1   1 1881.62  548.68
  -1  10   1    3.26  542.58
  -1  10   3   12.89   95.87
  10   1   3  230.87  125.03
  10   1   5   54.04  108.16
  -1  10   5   13.02   56.74
 -10  -2  -4 1322.68  437.54
   2 -10  -4  440.76  421.87
   2 -10  -2  352.14  254.59
  10   2  -2  167.33  240.85
  10   2   0  929.09  584.08
 -10  -2   0  625.59  587.74
  -2  10   2   -3.54  386.41
 -10  -2   2 1096.69  375.96
  10   2   2   48.30  379.00
  -2  10   4  -38.52   72.01
 -10  -2   4    5.00    9.03
  10   2   4  170.18  104.38
   3 -10  -5   74.15  146.11
 -10  -3  -5  774.85  173.21
 -10  -3  -3  113.54  128.81
  10   3  -3  139.49   97.86
   3 -10  -3   73.68  120.76
   3 -10  -1 -175.54  137.32
 -10  -3  -1   46.58   77.91
  10   3  -1   37.25   47.09
  -3  10   1   -4.13  166.48
  10   3   1   14.76   98.69
 -10  -3   1  160.83   87.47
  10   3   3  -37.82  143.54
  -3  10   3   16.14  150.24
 -10  -3   3  192.34  119.61
  10   3   5  -28.30  108.21
  -3  10   5 -117.95   92.40
  10   4  -4  418.36  302.55
   4 -10  -4  600.42  310.22
 -10  -4  -4  247.13  312.52
   4 -10  -2  586.10  283.84
  10   4  -2  226.84  263.40
 -10  -4   0 1061.98  387.44
  10   4   0  258.70  384.96
 -10  -4   2  385.89  176.04
  10   4   2  -34.10  182.42
  -4  10   2   37.24  210.47
  -4  10   4  -62.18   85.53
  10   4   4   27.54   69.97
   5 -10  -5   10.83   61.31
 -10  -5  -5  175.28   78.16
  10   5  -3   18.50   37.13
 -10  -5  -3   55.83   65.69
  10   5  -1  -13.14   35.23
 -10  -5  -1   31.93   50.95
 -10  -5   1  582.16  169.19
  10   5   1  -34.86  167.40
  -5  10   3 -108.22  115.46
  10   5   3   59.96   62.50
 -10  -5   3   50.29   42.38
  -5  10   5   33.95   75.60
  10   5   5  -29.40   64.68
 -10  -6  -4  826.23  520.00
   6 -10  -4  581.19  521.76
 -10  -6  -2  824.19  143.52
  10   6  -2   -8.28  130.35
  10   6   0   19.46  252.26
 -10  -6   0 1315.76  258.20
 -10  -6   2  732.76  244.19
  -6  10   2   66.86  286.77
  10   6   2  -21.24  244.48
  10   6   4    2.15   52.14
  -6  10   4  -18.91  102.81
  10   7  -3   24.12  149.82
   7 -10  -3  204.33  173.63
 -10  -7  -1  271.50   65.56
  10   7  -1  -36.17   46.35
  10   7   1  -27.98  176.42
 -10  -7   1  501.91  175.05
  -7  10   3  -38.67  201.11
  10   7   3  -12.14  166.35
 -10  -8  -4   13.50  115.69
   8 -10  -4  388.90  127.88
  10   8  -2    6.23  111.99
 -10  -8  -2  796.10  129.46
  10   8   0   -1.56   44.56
 -10  -8   0   35.78   51.10
  10   8   2  -27.39  246.21
 -10  -8   2  824.43  247.45
  -8  10   4  -60.84  104.44
  10   8   4   40.66   56.41
 -10  -9  -3  196.01   84.91
  10   9  -3    3.53   82.06
 -10  -9  -1  251.05   63.94
  10   9  -1  -49.17   54.47
  10   9   1  -55.17   69.34
 -10  -9   1  215.99   69.37
  10   9   3   29.64   65.94
  -9  10   3   43.53  138.66
  10  10  -2  -14.28  177.64
 -10 -10  -2  759.13  183.67
  10  10   0   -1.91   64.10
 -10 -10   0  137.94   67.56
  10  10   2  -18.93  139.20
 -10 -10   2  652.24  147.20
   9  11  -2   23.03   72.34
  -9 -11  -2   82.56   64.49
   9  11   0   39.83   66.37
  -9 -11   0   81.27   67.26
   9  11   2   58.89   56.30
  -9 -11   2  -68.94   66.37
  -8 -11  -3   11.10   47.16
   8  11  -3  -23.21   78.84
   8  11  -1   93.32   83.17
  -8 -11  -1   80.41   76.86
  -8 -11   1   96.82   65.74
   8  11   1   -2.08   61.07
  -8 -11   3  132.76  105.26
   8  11   3   48.78   77.41
   7  11  -2   -9.49  103.21
  -7 -11  -2  102.57   73.27
   7  11   0  -50.72   99.77
  -7 -11   0  294.23   99.23
  -7 -11   2   76.02   88.64
   7  11   2    4.62   63.64
   6  11  -3  -23.37  124.44
  -6 -11  -3   68.11   59.19
   6  11  -1   19.77   80.64
  -6 -11  -1  -31.91   58.88
  -6 -11   1   48.61   81.45
   6  11   1   22.12   66.59
   6  11   3  -21.93   65.76
  -5 -11  -4   25.93   46.83
   5  11  -2   48.06  123.57
  -5 -11  -2   98.78   81.24
   5  11   0   30.79   83.42
  -5 -11   0   70.83   83.40
  -5 -11   2  384.22  132.17
   5  11   2   27.77   94.53
   5  11   4    7.77   61.31
  -4 -11  -3   56.20   59.52
  -4 -11  -1  119.57  112.55
   4  11  -1  140.49  133.18
   4  11   1   55.85  121.63
  -4 -11   1  286.37  137.91
   4  11   3  -51.32   65.13
  -3 -11  -4   16.75   42.14
  -3 -11  -2  625.86  451.93
  -3 -11   0  -39.50  108.45
   3  11   0  -97.28  117.30
   3  11   2   71.80   88.56
   3  11   4   -2.50   59.27
  11  -2  -5    1.40   50.06
  -2 -11  -5  162.49   58.62
  -2 -11  -3  227.90  171.74
  -2 -11  -1  130.94   98.51
   2  11  -1  -46.67  144.74
  -2 -11   1   24.43  128.44
   2  11   1   45.36   97.83
   2  11   3   26.92   68.93
   2  11   5   57.00   73.71
  -1 -11  -4   76.09   68.20
  -1 -11  -2  609.08  441.01
  -1 -11   0  300.86  151.89
   1  11   0   -7.07  155.63
   1  11   2   -8.41   81.16
   1  11   4    2.48   64.55
 -11   0  -5   81.87  158.00
   0 -11  -5   96.01   78.94
   0 -11  -3  -16.07   56.43
 -11   0  -3   44.12  160.32
   0 -11  -1   67.96  105.83
   0  11   1 -128.51  150.02
   0  11   3  -41.74   79.87
  11   0   5   20.35  118.11
   0  11   5   52.01   68.98
   1 -11  -4  271.00  227.85
 -11  -1  -4  597.22  264.18
 -11  -1  -2  766.16  405.70
   1 -11  -2  446.37  385.84
 -11  -1   0  196.09  127.74
   1 -11   0 -122.81  142.03
  -1  11   0 -126.22  155.75
  11   1   2  247.88  129.10
  -1  11   2  -42.75  127.44
  -1  11   4   31.23   82.63
  11   1   4   99.79  113.97
 -11  -2  -5   93.46  159.95
   2 -11  -5  162.80  118.48
 -11  -2  -3  488.43  486.33
   2 -11  -3  730.81  476.78
 -11  -2  -1 1306.25  552.34
  11   2  -1  506.62  540.38
   2 -11  -1  959.08  550.35
  11   2   1 1360.96  580.76
  -2  11   1   -4.06  585.41
 -11  -2   1  799.05  579.07
 -11  -2   3  360.96  167.97
  11   2   3  187.07  185.51
  -2  11   3  -28.94  180.32
  11   2   5   48.51   97.12
  -2  11   5   21.87   72.26
  11   3  -4  186.58  135.43
   3 -11  -4  310.59  149.06
 -11  -3  -4  175.54  164.82
  11   3  -2   13.68   54.74
   3 -11  -2   50.13   93.91
 -11  -3   0 1237.47  570.41
  11   3   0  501.27  567.99
  -3  11   2   99.55  116.94
  11   3   2  -25.37   83.97
 -11  -3   2   39.59   47.42
  -3  11   4  -12.24  103.61
  11   3   4 -147.24  100.59
  11   4  -3   28.93   25.16
   4 -11  -3  -30.92   79.78
 -11  -4  -3  -34.14   75.91
 -11  -4  -1  123.60   74.05
  11   4  -1   17.87   44.26
  -4  11   1  -57.15  174.05
  11   4   1   66.91   79.02
 -11  -4   1  104.85   72.52
  -4  11   3  163.42  113.09
 -11  -4   3   -2.34   23.48
  11   4   3  -40.97   66.43
 -11  -5  -4  227.31  120.27
   5 -11  -4   58.71  116.45
  11   5  -2   33.15   55.46
   5 -11  -2   43.74  113.38
 -11  -5  -2  176.39   70.99
  11   5   0   19.64  103.96
 -11  -5   0  301.28  107.33
 -11  -5   2   74.79   55.01
  -5  11   2  -23.25  141.40
  11   5   2   37.62   69.36
  -5  11   4  -48.75  102.35
  11   5   4  -41.84   75.92
   6 -11  -3   20.04   80.46
  11   6  -3  -12.39   25.42
 -11  -6  -3   67.97   53.60
  11   6  -1  -31.76   40.44
 -11  -6  -1    3.59   54.02
 -11  -6   1   65.58   47.42
  11   6   1    1.48   50.34
  -6  11   3  -37.56  115.62
  11   6   3   53.21   55.64
 -11  -7  -2  173.36   77.53
  11   7  -2   41.81   59.70
  11   7   0   19.68  122.09
 -11  -7   0  416.47  127.55
 -11  -7   2  251.26  115.04
  11   7   2   22.64  117.02
 -11  -8  -3   33.57   55.61
   8 -11  -3   79.22  106.55
  11   8  -3   21.83   40.38
 -11  -8  -1  226.17   76.66
  11   8  -1   -1.50   68.37
  11   8   1   44.55  142.48
 -11  -8   1  303.88  140.89
  -8  11   3 -147.67  137.35
  11   8   3   31.53   56.84
 -11  -9  -2   14.44   52.50
  11   9  -2    6.68   34.80
  11   9   0  -14.44   46.73
 -11  -9   0   45.83   48.94
  11   9   2   13.22   54.32
 -11  -9   2   10.46   44.45
  -8 -12  -2  620.91  447.05
  -8 -12   0  492.88  210.81
   8  12   0   91.30  209.70
   8  12   2  -12.44   59.26
   7  12  -1  -45.07   75.81
  -7 -12  -1  112.09   63.89
  -7 -12   1   26.62   71.21
   7  12   1  -11.76   55.14
  -6 -12  -2  578.78  298.62
   6  12  -2   56.90  305.49
   6  12   0 -108.24   86.25
  -6 -12   0  319.46   89.95
   6  12   2  -78.10   64.53
  -6 -12   2  441.78  102.03
  -5 -12  -3  168.89  128.99
   5  12  -1   88.73  108.43
  -5 -12  -1    2.74   65.34
   5  12   1  -36.59   70.98
  -5 -12   1  110.60   89.16
   5  12   3   33.60   62.97
  -4 -12  -4  608.22  437.73
  -4 -12  -2   62.51   66.02
   4  12  -2    4.23  132.59
  -4 -12   0 2058.26  528.46
   4  12   0   93.88  519.98
  -4 -12   2   55.10  125.53
   4  12   2  -77.31   75.50
   4  12   4  -57.36   74.11
  -3 -12  -3  355.98  260.69
  -3 -12  -1  532.10  249.91
   3  12  -1    3.82  258.56
  -3 -12   1  261.07  134.27
   3  12   1    9.06  102.08
   3  12   3  -31.40   71.63
  -2 -12  -4   94.57   80.41
  -2 -12  -2  349.79  258.99
   2  12   0  -61.56  157.68
  -2 -12   0  321.41  146.63
   2  12   2  -20.21   78.06
   2  12   4    2.52   62.39
  -1 -12  -3  106.43   93.54
  -1 -12  -1   71.97  104.05
   1  12  -1   68.65  158.88
   1  12   1   38.55  112.14
   1  12   3 -137.30  123.60
   0 -12  -4  456.95  286.71
 -12   0  -4   22.29  316.25
   0 -12  -2  656.19  476.67
   0 -12   0   99.41  125.11
   0  12   0   17.60  137.07
   0  12   2   28.39   96.67
   0  12   4  105.42  105.00
 -12  -1  -3  169.23  149.64
   1 -12  -3   26.10   70.51
 -12  -1  -1   72.64  146.80
   1 -12  -1   11.80   94.66
  12   1   1  120.30  132.75
  -1  12   1  139.53  148.11
  -1  12   3  -19.52   84.72
  12   1   3   80.81  109.71
   2 -12  -4   12.26   86.33
 -12  -2  -4  874.18  156.74
   2 -12  -2  678.57  496.21
  12   2  -2  552.18  491.64
 -12  -2  -2 1175.44  505.48
  12   2   0  106.32   87.26
 -12  -2   0  -44.92  105.27
  -2  12   2 -193.22  164.11
  12   2   2   83.31  136.56
  -2  12   4  108.52   80.91
  12   2   4 -126.41  106.21
  12   3  -3  129.47  118.10
 -12  -3  -3  -28.37  156.68
  12   3  -1   13.97   64.97
 -12  -3  -1   53.98   93.35
   3 -12  -1  220.16  123.78
  -3  12   1 -179.04  146.53
  12   3   1    4.74   69.72
 -12  -3   1  101.70   66.20
  12   3   3  -63.55   95.85
  -3  12   3  -57.28  114.01
 -12  -4  -4   95.56   94.06
   4 -12  -4   29.62   74.28
   4 -12  -2  990.39  207.06
 -12  -4  -2  711.85  195.59
  12   4  -2  127.50  176.36
  12   4   0  -62.67   61.93
 -12  -4   0  -17.99   62.47
 -12  -4   2  917.39  392.35
  12   4   2    4.86  394.75
  -4  12   2   13.37  409.08
  -4  12   4   56.83   90.93
  12   4   4   41.45   80.74
   5 -12  -3   23.70   83.83
 -12  -5  -3   82.45   83.66
 -12  -5  -1   19.63   50.93
  12   5  -1  -21.27   33.59
  12   5   1   23.79   75.51
 -12  -5   1  139.71   74.21
  -5  12   3    4.55  117.98
  12   5   3   64.51   73.78
  12   6  -2  -13.75   83.96
 -12  -6  -2  468.39  100.73
  12   6   0    3.96   68.84
 -12  -6   0  229.29   77.67
  -6  12   2   16.42  230.40
  12   6   2  -30.59  183.05
 -12  -7  -1  -12.52   58.72
  12   7  -1   27.01   39.38
 -12  -7   1  -13.74   46.02
  12   7   1  -47.86   52.80
 -12  -8  -2  118.72   57.78
  12   8  -2  -10.23   36.27
  12   8   0  -15.20   52.58
 -12  -8   0  117.76   55.59
  12   8   2  -30.98   53.53
   7  13   0   95.11   90.09
  -7 -13   0   71.29   85.43
  -6 -13  -1  272.20  126.20
   6  13  -1  -83.94  144.29
   6  13   1  146.16  103.02
  -6 -13   1   45.61  122.87
  -5 -13  -2   79.28   77.00
   5  13  -2   70.42  121.32
   5  13   0  -70.38   90.11
  -5 -13   0  -44.68   85.27
  -5 -13   2   48.55  108.09
   5  13   2   16.73   67.26
  -4 -13  -3  226.60  170.37
   4  13  -1  184.15  134.15
  -4 -13  -1   91.03  107.64
   4  13   1   31.25   86.96
  -4 -13   1   72.41   98.57
   4  13   3    8.28   63.43
  -3 -13  -2   81.76   78.97
   3  13  -2   31.77  151.04
   3  13   0  -12.65  201.71
  -3 -13   0  449.76  192.71
   3  13   2  121.80  114.00
  -2 -13  -3    2.92   45.36
   2  13  -1    4.75  123.88
  -2 -13  -1   32.35   90.67
  -2 -13   1   14.42  124.32
   2  13   1  122.93  114.05
   2  13   3    6.02   70.05
  -1 -13  -2  597.70  434.59
  -1 -13   0  266.91  178.51
   1  13   0  126.83  181.57
   1  13   2  -88.28  109.34
   0 -13  -3  144.47  120.06
   0 -13  -1   43.81   89.07
   0  13   1   47.48  119.79
   0  13   3  -73.68   96.89
   1 -13  -2  326.86  189.49
 -13  -1  -2   23.53  214.51
  -1  13   0  -88.46  145.41
   1 -13   0   57.87  136.25
  13   1   2  175.31  117.08
  -1  13   2  -48.09  125.06
 -13  -2  -3  -41.85  146.88
   2 -13  -3   89.39   80.75
  13   2  -1  430.34  195.42
 -13  -2  -1  -80.32  215.41
   2 -13  -1  214.73  206.62
  -2  13   1  -33.56  140.14
  13   2   1  101.66  103.13
 -13  -2   1  103.90  112.95
  13   2   3  132.42  107.54
  -2  13   3   24.32  112.37
  13   3  -2   -1.54  115.98
 -13  -3  -2  417.88  148.49
   3 -13  -2  375.96  136.89
  13   3   0  -59.06   73.61
 -13  -3   0   62.23   81.51
  -3  13   2   57.50  118.27
  13   3   2  -58.22   81.96
   4 -13  -3   -4.37   76.02
 -13  -4  -3   49.57   82.46
  13   4  -1  -68.16   45.78
 -13  -4  -1  122.01   80.18
  -4  13   1   -5.87  155.45
  13   4   1    4.45   65.53
 -13  -4   1   40.32   58.20
  -4  13   3  -24.87  130.53
  13   4   3  -83.62   90.86
   5 -13  -2   86.20  106.29
  13   5  -2   -4.53   46.04
  13   5   0  -39.60   67.11
 -13  -5   0  216.55   70.74
  -5  13   2 -113.18  152.63
  13   5   2  -30.89   68.38
 -13  -6  -1  245.93   93.89
  13   6  -1   56.84   81.95
 -13  -6   1  227.43   80.37
  13   6   1   -1.63   76.48
 -13  -7   0   -5.87   46.95
  13   7   0   36.16   41.91
  -4 -14   0  -40.93   89.50
   4  14   0   41.82   98.42
  -3 -14  -1   79.17   98.01
   3  14  -1   91.00  125.56
  -3 -14   1   29.07  119.81
   3  14   1  -68.84   88.63
  -2 -14  -2  186.22  150.54
   2  14   0  -95.97  107.16
  -2 -14   0   21.77   92.04
   2  14   2  103.35  110.15
  -1 -14  -1   -4.41   85.88
   1  14  -1   66.90  138.67
   1  14   1  -47.37  123.59
  -1 -14   1  150.56  134.62
   0 -14  -2  133.96  124.34
   0 -14   0  -70.73  130.94
   0  14   0  -82.02  147.14
   0  14   2 -114.64  133.44
   1 -14  -1   84.29   98.50
 -14  -1  -1 -124.67  156.42
  -1  14   1  177.36  175.04
 -14  -2  -2  356.70  300.52
   2 -14  -2  393.70  286.28
  14   2   0  161.57  151.64
 -14  -2   0  277.35  169.65
  -2  14   0   12.57  205.29
  -2  14   2  -72.04  132.20
  14   2   2 -101.01  109.40
  14   3  -1   -4.36   81.12
 -14  -3  -1  179.08  108.53
   3 -14  -1  225.29  132.97
  14   3   1  -74.21   81.09
 -14  -3   1   17.11   72.31
  -3  14   1   94.25  134.96
  14   4   0   52.94   65.24
 -14  -4   0   38.15   77.03
   0   0   0    0.00    0.00


TITL exp_2584 in I4(1)
REM I4(1) (#80 in standard setting)
CELL 0.02510  10.441743  10.441743   5.566573  90.0000  90.0000  90.0000
ZERR    1.00   0.139493   0.139493   0.172793   0.0000   0.0000   0.0000
LATT -2
SYMM -x+1/2,-y+1/2, z+1/2
SYMM -y, x+1/2, z+1/4
SYMM  y+1/2,-x, z+3/4
REM SFAC Li B O Al Mn
REM ED SFAC according to Peng (1999)
SFAC LI 0.120 0.591 0.395 6.111 1.379 36.767 1.389 117.031 0 0 0 0 1.33 3.000
SFAC B 0.130 0.418 0.520 3.921 1.377 16.663 0.767 51.751 0 0 0 0 0.85 5.000
SFAC O 0.143 0.305 0.510 2.268 0.937 8.262 0.392 25.665 0 0 0 0 0.63 8.000
SFAC AL 0.358 0.453 0.975 3.775 2.639 23.386 1.910 80.502 0 0 0 0 1.26 13.000
SFAC MN 0.555 0.395 2.007 3.480 2.568 19.586 2.369 74.920 0 0 0 0 1.19 25.000
UNIT 1.00 1.00 1.00 1.00 1.00
TREF
HKLF 4
END
_computing_structure_solution     'SHELXT 2018/2 (Sheldrick, 2018)'
;
_shelx_hkl_checksum                64412
_olex2_submission_special_instructions  'No special instructions were received'
_oxdiff_exptl_absorpt_empirical_details
;
Empirical correction (ABSPACK) includes:
- Absorption correction using spherical harmonics
- Frame scaling
;
_oxdiff_exptl_absorpt_empirical_full_max  1.981
_oxdiff_exptl_absorpt_empirical_full_min  0.615
